VARIABLES = "X", "Y", "P", "delta_x", "delta_y", "monitor"
ZONE NODES=521, ELEMENTS=960, DATAPACKING=BLOCK,
VARLOCATION=([6]=CELLCENTERED),ZONETYPE=FETRIANGLE
-1.00000000000000000000
-0.95110122042758249439
-1.00000000000000000000
-0.90128905776568790653
-0.95087605506366790209
-1.00000000000000000000
-0.92458568043627920030
-0.84681281911722372513
-0.87435165828848893099
-0.88924916807663401119
-0.87629195604372067674
-0.93929605004507255028
-0.83782482848097983297
-0.80957605882497551963
-0.77028260117143554364
-0.82425695316668701196
-0.93854346337144101131
-1.00000000000000000000
-1.00000000000000000000
-0.76350416494132677947
-0.67500184383962658075
-0.72374130316795204365
-0.78979137529555076824
-0.73512966189055628519
-0.69745550866724748129
-0.86840629863338603123
-0.85915375946319716416
-0.93159721533154515871
-0.77996709947837039589
-0.59052791222704326124
-0.68311572802954789729
-0.63394405719171453839
-0.64534543218204976078
-0.92934879192761632449
-1.00000000000000000000
-1.00000000000000000000
-0.53722116265040276151
-0.58100022481832691579
-0.48057977378600341689
-0.69938501596906132995
-0.78201447048506866899
-0.69953050399967398043
-0.54062118144679982557
-0.48773653691841495350
-0.59532428597232067702
-0.85068665991957848060
-0.92754453807842662805
-0.85527577019602585295
-0.77549251324301893273
-0.61916700627987553140
-0.53634407406385986583
-0.61931408513572916430
-0.51292171156592702985
-0.49063590575129406579
-0.43339569824971285739
-0.38335067759182445135
-0.43732578601972715848
-0.92445491608744023715
-1.00000000000000000000
-1.00000000000000000000
-0.77133489739554828013
-0.69364340588998674164
-0.68886021587569623570
-0.32128874700419568500
-0.37231566749053934817
-0.25519399866823094802
-0.53502774178740497568
-0.53323645038174749544
-0.61794626756305648385
-0.43801477405962652156
-0.38536725170328622880
-0.46275485781165281995
-0.61169042988354183077
-0.33388480597747627332
-0.28155278237989189716
-0.38808932819752056664
-0.84621549744770929724
-0.84353693098844662046
-0.92285262441810922418
-0.76608723966222103119
-0.33499593276571654199
-0.20015769678841846546
-0.14296934087776907996
-0.26696770926421004022
-0.37654812894374850574
-0.45632437392007935140
-0.45780352983897815156
-0.38120397403386990787
-0.21436610369516304053
-0.52339215125231886017
-0.60648917633289567419
-0.52663144447669774095
-1.00000000000000000000
-0.92154524559849859688
-1.00000000000000000000
-0.68340738282832391715
-0.76375491006020512774
-0.68427807565115161825
-0.07282869705187883236
-0.13019180323413531708
-0.00050948295158745479
-0.60362572965981942108
-0.22042679498988720921
-0.30391381129401162653
-0.25102353814397976306
-0.36395493147742247197
-0.44873544377981866571
-0.36921846002018143817
-0.30030094933596773732
-0.44428731814151301016
-0.15436703574965898733
-0.08334940277471289405
-0.02534572093510416638
-0.84377282740909997916
-0.92161101874067408168
-0.84240465874100944887
-0.76392268513377403760
-0.12552848708836464309
-0.01086750050450255821
0.06130327453034772889
0.12139907344903393127
-0.52231415261672642369
-0.60307596190305767792
-0.52095981633710353176
0.04681057441967942379
-0.21080425052765017213
-0.20226829431313003704
-0.28917819474973438520
-0.28421008855946977567
-0.35653673029711585585
-0.44014798170879498862
-0.35876720654942018118
-0.92301312622152076326
-1.00000000000000000000
-1.00000000000000000000
-0.43956136177338078763
-0.76664888263585728723
-0.68475040038293044642
-0.68983735266681345255
-0.60648367001545122612
-0.12477701924500848862
-0.02814992746391773576
-0.03069663882380295819
0.18881387104880315020
0.12909613927190402571
0.25396572255889954262
-0.11799635243856781974
0.18560306920708397049
0.24580747567203453663
0.11121894407635164737
-0.19262248266392997809
-0.27812977834675706168
-0.19659119471087138642
-0.27492971061725368642
-0.84696531489157944605
-0.85186374186015267895
-0.92502939967822228606
-0.77247794453190710140
0.05945415859868713460
0.14012724131625248214
0.05377377788281301196
-0.35530318812339356516
-0.43952818786480629676
-0.35443863218565713202
0.19261119727038356064
-0.53405775040465719439
-0.61264788568391648216
-0.52649463489582593034
0.31435868061929228556
0.37095297824512646345
0.24989371939268453793
0.30963076979136461286
-0.11272880426532093379
-0.02748238095640423082
-0.02456379949122820469
-0.10926884730621649888
-0.44488306073352279491
-0.27213724596749333529
-0.18893119644739900242
-0.18685408181670426497
-0.92814074753587971767
-1.00000000000000000000
-1.00000000000000000000
-0.27076109998711900273
-0.70447918925777719412
-0.77860944811333865356
-0.69680824220689951964
-0.62099023810524400790
0.14639699361888275364
0.15263686304902748803
0.06236594265992003588
0.24727045887026763427
0.30042428358468697969
0.35040686495179723670
0.06310645192208012844
0.37134840608673652662
0.48002855456065163242
0.42723902154508530682
0.36474730756315110192
0.42583657208487318835
0.47676990876278907416
-0.10696381341907466866
-0.02287410215079273973
-0.02140813545997129544
-0.10404271372035699128
-0.35902067392031222770
-0.44839665977792431129
-0.35607521610312126148
0.25068575420961658473
0.41478081814189388110
-0.86047439278881854285
-0.93003450364614137502
-0.85658914360840610058
-0.78518839797407036230
-0.17631310797596991269
-0.26707406644912007332
-0.18099029863035201449
-0.56135919177713855532
-0.63423763333387828123
-0.54799792994300722260
-0.26664156655113957495
0.15102313953485105302
0.15070635979935523285
0.06372696701879240755
0.48304529932721879115
0.53525523906380589878
0.58710738662110428798
-0.46249386609246506685
0.53394526323999280670
0.06451363040353183531
0.34018849700989800544
0.33240349476754432745
0.24388059143202794887
-0.10387797059609871209
-0.02047666072857344879
-0.01970784310840094367
-0.09727260337165979931
-0.93220723850615261341
-1.00000000000000000000
-1.00000000000000000000
0.45442529998609815234
0.51618667950977414893
0.55391560306684961557
0.24127439451534737902
-0.70387988655699240681
-0.70102391686067766496
-0.78225397504477311994
-0.63363987938192012361
0.63251627222034245701
0.58105234483838386073
0.67528175610399021611
0.43759644913597633975
0.52121655385136855809
0.42706050463504813264
-0.14844594586763923405
-0.11929959711387994048
-0.24127777913002038113
0.59065573584244790428
0.64377089491902039775
0.69747220548228172632
0.53783953594336275650
0.06276991779735159593
0.14827778547354938943
0.14715812838191649758
-0.52254536021174113891
-0.42180752274652660860
-0.48195144373663789672
0.06427628008858182751
0.62817772268925164969
-0.86931538906990801774
-0.87693484716719771743
-0.93884353509822493500
-0.09719031601306461765
-0.01807195708797063732
-0.01645888736998840640
-0.79176027346933119944
0.32628463954724568064
0.32318927779253425747
0.23734906465939625830
-0.59500923146909900918
-0.18428037503905003724
-0.25052693470607917403
-0.30714176178930330252
-0.06690401635026879679
-0.36981720760940922643
0.76972164747042726152
0.68134908407326721935
0.72363445332995390835
0.23562470833578744167
0.73486477646606784830
0.50997759873520454033
0.50232274335313731317
0.41808514244772160273
0.62722918361676494037
0.69789483219203263253
0.61130774495406958735
0.13686958353601350047
0.05786501693457403450
0.14157431878394863278
0.69882986734112129135
0.41301003414840264938
0.06094401375199820503
-0.93961142471916636598
-1.00000000000000000000
-1.00000000000000000000
-0.53758111039086886596
-0.58930767870804656727
-0.64666935823099647163
-0.77092428703430238013
-0.82490421791405676988
-0.73718962201000337586
0.03911196222338977901
0.09668707589588873552
-0.01113613639694509098
0.80942896800536590085
0.76380919742342945344
0.84700027009458256355
-0.68303236355306340410
-0.06047126730374089570
0.00195462328597317304
-0.12579610471387533965
0.23162631034696867793
0.31866551871837933696
0.31686470760873580721
0.60110477412480034509
0.67954984682567698417
0.59137388344457464395
0.68831438063050798259
0.82373701159433820873
0.87581008698795037581
0.78948972208200329792
0.22802324071383159310
0.11718433154686383468
-0.31361805880175935846
-0.37412596244198126350
-0.43003541052589733251
0.05075791301498918523
0.78082479396582249453
0.77932977306321338240
0.85814321448002439663
-0.48572203581668182970
0.49772688485952937265
0.49717299382662111240
0.41027761011163321747
-0.90152330042078643313
-0.95098335204112316443
-0.88969003675674940279
-0.83825284339768257880
0.86760810769301943690
0.40799242647597805389
-0.12825090260591545666
-0.19144872763352424605
-0.06240871171902909187
0.83744715871272390473
0.87434004008590404666
0.90107153202569179040
-0.25483908583910330758
0.29627629103786079501
0.19810097239529858570
0.21565011229579211793
0.88891457261202522222
-0.72438965491729001567
-0.63370803192548474936
-0.67557658309823032106
0.30590463779210513851
0.67289661948119650070
0.67020472591226587511
0.58651945923894732715
0.77338584844109892202
0.84793156211120002119
0.76541086761156995610
0.58401255960307452142
0.85347167036359661285
0.18395841238511290161
0.27334804800199125063
0.13970743308382979619
-0.42890049628547050053
-0.48034451393301941247
-0.53652527472463518166
-0.95121929245246128470
-1.00000000000000000000
-1.00000000000000000000
-0.81008100130146121209
-0.84716609441035961581
-0.87464777554799588710
-0.58136657302743555142
0.28553457419053379640
-0.76403954763644221782
0.50301239160201005607
0.40951049891600949104
0.49811738441468544902
0.95100072392394219278
0.92466607422999314014
1.00000000000000000000
0.93109157867461433966
0.93827441651214338325
1.00000000000000000000
0.40172108551131963106
0.13674116700219338116
0.00433237264381047295
0.06867199953490557562
0.95075316372921314656
1.00000000000000000000
0.93906941829624346330
-0.25441372086980673650
-0.31617037997777430736
-0.19239266384560785306
0.20772750463804609544
0.75888480360214849441
0.83841644216545108126
0.75463543230001572937
0.84227113692609545392
-0.92475119549223627757
-0.37166491161667003507
0.92885722173514373434
1.00000000000000000000
0.92622949915839958290
0.67146266154384559588
0.67690996777206680068
0.58749747259063955784
1.00000000000000000000
1.00000000000000000000
1.00000000000000000000
0.59096890328264584102
0.43519131506719826996
0.35656939275390536759
0.36626916384737390198
0.46999614214405399659
0.06923475692790763414
-0.00022041298706858474
-0.06509347496973966196
-0.12966692245224104019
0.33048065931327552658
0.38475767046042697039
0.26455578588105582716
0.75458107008250641101
0.83696895166553642031
0.83820996968205863098
1.00000000000000000000
0.92034732031638133432
0.92306754905562937719
0.75738595574443257075
1.00000000000000000000
0.47055410841361583474
0.50405520210436738360
0.39205141338942317564
0.44638329709788998612
0.60414665087274521671
0.68874708572585563449
0.70087875786965692093
0.50684960909006149254
0.53968052666598753664
0.57481045689389864695
0.19646187533854164720
0.25418654049333555545
0.12927294347078768788
0.32164239537930783275
0.63863646412861729829
0.91898632911175193172
1.00000000000000000000
0.91880962180553438223
1.00000000000000000000
0.76466895247746247133
0.84263895925070297910
0.84886133907296201784
0.54030167295370512548
0.77542406668963981264
0.59592223558356083313
0.49435795339368709955
0.55158285322869082812
0.43420857909885213211
0.48053807127773129348
0.37174072170782068714
0.92030886751293206061
1.00000000000000000000
1.00000000000000000000
0.54005027266315197565
0.92348585865390719896
0.70636505561693085919
0.60810029194814751996
0.64257894276144478241
0.70474923349440277143
0.65252148352362338013
0.85546600055177268729
0.86084970078633049617
0.78363087657562680022
0.78497224407499766041
0.63678014936552862491
0.67539560228186956703
0.58138412176976383972
1.00000000000000000000
1.00000000000000000000
0.92674435763050644344
0.93031060246720409523
0.74080624829001484599
0.77305259626438171949
0.68715955681510454411
0.72535771955142169798
0.87833974477651022283
0.79497576905253919399
0.87017268270035497135
0.82662201485171726834
0.93236757452716345629
1.00000000000000000000
1.00000000000000000000
0.93957047813334260145
0.81094423536327486790
0.84689806034612225005
0.76370671966151837395
0.90218707142066900673
0.83957180774200812490
0.89069671354625223891
0.87484312644661943459
0.94028235637495793942
1.00000000000000000000
1.00000000000000000000
0.95132153240227723678
0.95153763706624894247
1.00000000000000000000
0.92461156359076035471
1.00000000000000000000

-1.00000000000000000000
-0.96609822757536256699
-0.94786806229295628157
-0.93082091603682481917
-0.91188092759184280478
-0.89196375216116463580
-1.00000000000000000000
-1.00000000000000000000
-0.96587616985075908094
-0.88432429687205516000
-0.83170928267897026309
-0.86340547649253118756
-0.92194228038127579161
-0.95751921234637493718
-0.91191039587167110891
-0.87348391230250654882
-0.79495662841908254492
-0.75446433045290350883
-0.82813933550291041197
-1.00000000000000000000
-1.00000000000000000000
-0.95669351598006169279
-0.80164636717290538304
-0.84534589453116792956
-0.76805280083087834608
-0.75740760459641887081
-0.66977345574041868836
-0.71488251315412776332
-0.72139298398450069083
-0.89840643073773873706
-0.90545506852305557288
-0.95150393473719119264
-0.83666952002193073490
-0.62034139006672917027
-0.56377681528810141831
-0.66775454361184038987
-0.94987456898124700277
-1.00000000000000000000
-1.00000000000000000000
-0.54623375820317188190
-0.61177260064989391619
-0.66691274503728126266
-0.83996744878778228927
-0.77263386574357895142
-0.77066092353375248436
-0.43540281217982723660
-0.50323735510343325927
-0.56270476477266162529
-0.49383663564720925443
-0.69704138971266660363
-0.61516006777818610374
-0.58186329438280393056
-0.69902952069872914542
-0.89471646306153196360
-0.94797559190240032745
-0.89093552075699833370
-0.83416546323500118110
-0.37052209243882949785
-0.29979447320232915919
-0.44036362011267798922
-0.35877546727480258415
-0.41948095470961027642
-0.27942489840089945741
-0.94626463389573467477
-1.00000000000000000000
-1.00000000000000000000
-0.50886161552302056066
-0.39007433350981352005
-0.47051176821044621290
-0.71365375121105911749
-0.64680091008910001182
-0.63131378395807580262
-0.33678338372946442503
-0.82687677089722799728
-0.75339595374178103260
-0.76334355254071550867
-0.29425680587109903641
-0.14545548266963476136
-0.22334336547242422677
-0.21434382516522848539
-0.70209689890046855787
-0.94169711400515454525
-0.87790065668340711014
-0.88439226085411115630
-0.47862739921945407495
-0.43559910004743790379
-0.54889996253387207670
-0.56666318357781353399
-0.81796705939730851576
-0.12576603438659611500
-0.20135519099669726972
-0.25964982776173045620
-0.15080452566395757819
-0.07359530642440760551
-0.00029666263990835504
0.00770478054147820737
-0.06771930528297033514
-0.13633372062395615609
-0.94047251207664639416
-1.00000000000000000000
-1.00000000000000000000
-0.06055382210764610057
-0.57634410866584950828
-0.61170223986474114852
-0.66982316007819642234
-0.24567554208895886481
-0.31690468904233021208
-0.36465092188819497876
-0.52837981484007146005
-0.18710742071322342128
-0.72718140726008517749
-0.79588346872396509291
-0.70366724257327772918
0.15280862653690491237
0.07702350107724754980
0.00369222024198632157
0.07917988621388430404
-0.64094928545895535343
-0.87454058137855594790
-0.93882049369315667686
-0.87399055341206477454
0.14759018822309574737
0.07927683336922854151
0.01097825930610466655
-0.79336772758030327246
-0.47106008003229016268
-0.35935211324747984296
-0.41818996902604893551
-0.30337160486503195189
0.00980854468986103178
-0.05656224279061106835
-0.11839848675771393050
0.22673665888227273468
0.29922952600394653322
0.15021009967723589207
0.07729952845433542274
0.22556268950664029593
0.15158547472246400312
0.29415859401242328008
0.21973281391529098094
-0.52532909075108924490
-0.59541494156881902278
-0.47599031625983440064
-0.93978181005219929567
-1.00000000000000000000
-1.00000000000000000000
-0.41780903380355283172
-0.80594596046001198975
-0.73160110043398873803
-0.71563983986355361733
-0.11944020108974802430
-0.18142813709893171326
-0.24066947160904522685
-0.05574475035094099418
0.30064129185861765414
0.44061981150517426364
0.37300056155330207908
0.36872851669416589759
-0.63870047695757492523
-0.57086085873465064466
-0.52295127559542198270
0.27198442174356940448
0.21128544179885475063
0.14163087557303286057
-0.65505344843271839927
0.41551057410934238989
0.35715215111101161760
0.28375984420149191756
-0.94302362987443977271
-0.88416546814101226737
-0.87860589117308818263
-0.81330125936492592142
-0.30110268930599387582
-0.36243860508573311208
-0.24447139380154508936
-0.18220679121301805448
0.34287871268787428747
0.06904900396960725328
0.00362928046946515547
0.12659264568641054316
0.50549716736176086851
0.56344047620638038065
0.43986706592911128944
0.19815619575959761423
0.55422367518962512012
0.50053304509233786934
0.43080289693977524834
0.48693700856248139930
-0.47564835639204811057
-0.37452037438306334804
-0.42483598943097666822
-0.55661453799570359546
-0.64318268389514343664
-0.54486062936348833574
-0.30896878561792007201
-1.00000000000000000000
-1.00000000000000000000
-0.94497455841452682179
-0.74205426408554031603
-0.82185316940641373051
-0.75335338365171400365
-0.06039630838698208104
-0.12403875123276852932
-0.00226431029505100301
0.06171470425631608164
0.54580770782447307621
0.48318326897014607368
0.41334463571818841343
-0.45930463572276963857
-0.65608259768019416835
0.67124905512385169004
0.62095430021164843559
0.56588514310658022399
0.61632864172420109838
0.36190679137997244785
0.31733847595959041588
0.24568607088199556632
0.62059956843611030486
0.58869596286481551406
0.52414556702704351299
0.45401625866976708101
-0.25316683012876706194
-0.12866010603366606624
-0.18653923608511219223
-0.88941982686815435066
-0.94796238847514002757
-0.89425857711377099157
0.58396845346685488654
-0.82932215946800214024
-0.06513864489331419594
-0.41078867263053714387
-0.26848450018855202215
-0.32206007258730323661
0.17825640706805120916
0.11429958659009520350
0.22971413520550967857
0.29535594584591678968
0.71531335411957297499
0.75410839179029209856
0.66737762466693995034
-0.58153551005466763701
-0.68897205586060672466
-0.61696053610278511758
-0.19738215069009751312
0.66957426484838378222
0.76662857641418413746
0.72135300918369360534
0.69908182615324332421
-0.94960735744835556016
-1.00000000000000000000
-1.00000000000000000000
-0.47958085023758273424
-0.40921877525793259878
-0.33779319677057129123
0.46505602931491590857
0.56199778113714993211
0.55215389005523929367
-0.75969288547111091248
-0.83274244976351763370
-0.76465956569975734869
-0.51912083320197532910
0.05845790603532266538
-0.00444538006824683404
0.11976738085228279262
0.69223609161036170345
0.65824290020082687480
0.75638448321274520669
0.17474634959940088530
-0.69633501383381879446
0.75777966279849573450
0.83136711174933308754
0.79461507575127354741
0.38717187026665178529
0.32283343038113465617
0.41351305026218582173
0.80075224647941467548
-0.13466712093655675009
0.00035692911222289707
-0.06499848520889846271
0.76217531578373398649
0.65342245472238769111
0.73732300183642129898
0.64656502532100368352
0.48904810961612726894
0.74647156884209042715
-0.91055331177722009794
-0.90274135763865104298
-0.95603265845837337444
0.06082419481201169903
-0.84303794797437825448
-0.27439218288673322688
-0.13564368704862417303
-0.20363675581415824345
-0.58470636128759168049
-0.54989130923658946504
-0.48151967313010829441
0.34933839704775454527
0.28910731861953076205
0.23579091554437558997
-0.66658020214758884059
-0.06618035673525973772
0.38097264709322437026
0.86311394765015136965
0.89172334195726021822
0.82780565523400040373
0.83138353653562946377
0.89551793499215048833
0.83431708301418272544
0.91113457022253807605
0.87287386481311746156
0.84420879466777598576
0.48307037391642437818
0.55087654392281282245
0.55464940992428601874
-0.95689403543336803981
-1.00000000000000000000
-1.00000000000000000000
0.90363890208629893408
0.64808077461463409197
0.72788031138842868017
0.73083173161717485122
0.19085073745712008431
0.13298329376576017991
0.26393270698749365932
-0.34978276702922844743
-0.28570946817594294886
-0.20934616626045152166
-0.42428059733174883217
-0.87228805384468566242
-0.83077178838801002403
-0.79954067990671395805
0.30683540015637100762
0.45290347442104178510
0.81734100679339560802
0.88663974441177206831
0.82463768871416576189
0.64321081252845535570
-0.61351667851114866092
-0.71960506311532879131
-0.66972104679521549109
0.89127193055109099618
0.00735001171270346400
0.15006389936994518619
0.07366369090088534244
0.93058062823516762840
0.91164198486871872440
0.88401284699980064996
0.92144080790145355131
-0.75680360724966833086
0.20827983737743516190
0.87862005325649983334
0.81124689538106631304
0.80735366919329820679
-0.92106553223336984360
-0.96564607440961403029
-0.93037964306201814679
0.88219175696252716268
0.50059018896464035908
0.52479764160076458612
0.42473077779735290971
-0.88364759572144724320
0.95632524613625968790
0.95017067515731401528
1.00000000000000000000
0.38533651868347518210
-0.13980929093554120279
0.00709394995652890773
-0.06596664209474670248
-0.49656561076083771678
-0.43707267584047743147
-0.36266589718770908535
0.08037241400816327874
-0.56342547142660193149
0.63691396492781815475
0.71802241442869929600
0.72063966106670984679
0.94610528335486099305
1.00000000000000000000
0.94860039779712956864
0.96598676545439043917
1.00000000000000000000
0.94774435282780800094
0.95715509262054720985
1.00000000000000000000
0.96574876557553701595
1.00000000000000000000
0.61552695402672130687
1.00000000000000000000
0.44887523103415150061
0.35537397856491570458
0.30230556211768877528
-0.96589918363170701454
-1.00000000000000000000
-1.00000000000000000000
-0.71467860683830408686
-0.79433846748021230688
-0.75415773927343798810
0.47493552666119426275
0.87612518535139594089
0.87617342586505841950
0.80596311926683550375
-0.91156509761944359838
-0.89176591445149044901
-0.86288148742264225710
1.00000000000000000000
0.94421064670908927408
0.94193236581004868846
0.80072646007645753574
-0.21813952006392395289
-0.14644268318812228569
-0.06842019218710293504
-0.29553322142927351823
1.00000000000000000000
1.00000000000000000000
-0.62012649604071967691
-0.56336496919731138266
-0.50384598303270755615
0.15653435000520407594
0.30441350528168686917
0.22592042561162703485
-0.82786744186360861075
-0.66740014879195386222
-0.94776787167064158179
0.37959673799559873197
0.62688114451570986496
0.67374352954939453753
0.56523393035322333500
0.54254692568636175842
0.93968763425145496182
1.00000000000000000000
0.94089857812760369082
1.00000000000000000000
0.80787006337595168581
0.88550239985267109599
0.88034063711748733461
0.08006720065957352583
0.00448212033351203139
0.15539427192553662005
-0.29904666982578653744
-0.22345337073072460421
-0.37108554021344752893
0.23226968421847815627
-0.43973244019817175898
0.70297156538841498730
0.76921106617062606770
0.74426458198426537205
0.82943570816453959793
0.51111387592717805184
0.44394437597200592238
0.56966196944315272699
0.63873230317987050864
0.55535069417936600011
0.64993934590939650420
0.94083011674339123154
1.00000000000000000000
1.00000000000000000000
0.94373302832614947011
0.61138809821309214598
-0.07386698728094200084
0.00025313047053929471
0.07866615350687590491
-0.15012300951786849978
0.37685251065706715234
0.30502673639881455747
0.44660822785678694347
0.71301022261131707936
0.51150471430354194080
0.89798562143110638445
0.89203869339468067068
0.83813331905777166408
0.94559218337172001867
1.00000000000000000000
1.00000000000000000000
0.22825270486956492078
0.15065770243241399795
0.29963326762404701720
0.94970293086464652177
0.37643398318621451581
0.77497658053666995670
0.77267395555640594473
0.71690782600254832069
0.68146250770123162344
0.83931764715992895898
0.57169845525679352516
0.67662172784390173241
0.62649889212485831980
0.72841082252567979083
0.95126344811004437396
1.00000000000000000000
1.00000000000000000000
0.44043507557092020921
0.56418276628971575359
0.50879013422403707168
0.62419409438839490445
0.84872583154369751757
0.91290608921241400697
0.90574458438882410327
0.95711899670664224438
0.83377760284896362819
0.80588378032521190697
0.76152997350809648047
0.87495788470813562476
0.71814579519216870107
0.66819332324475144702
0.75481036185653938020
0.79622352850207944730
0.95797120736925456264
1.00000000000000000000
1.00000000000000000000
0.93131830588605857280
0.92267691346096969429
0.88547200184865038075
0.96610804014627937875
0.86434846665299458479
0.82827138411625200742
0.89199668689948741207
0.91214822701057118870
0.96632633974635262497
1.00000000000000000000
1.00000000000000000000
0.94786364379283927217

-37.40405273437500000000
-33.97116088867187500000
-39.84008789062500000000
-28.91555786132812500000
-34.20773315429687500000
-38.99407958984375000000
-31.18984985351562500000
-22.32394409179687500000
-26.30929565429687500000
-27.82119750976562500000
-26.73187255859375000000
-32.68408203125000000000
-23.06060791015625000000
-20.03811645507812500000
-17.16964721679687500000
-22.23376464843750000000
-31.95336914062500000000
-36.47222900390625000000
-38.01776123046875000000
-14.70617675781250000000
-6.92556762695312500000
-12.65130615234375000000
-19.63900756835937500000
-15.17245483398437500000
-13.26568603515625000000
-25.40509033203125000000
-23.59097290039062500000
-29.94604492187500000000
-18.67297363281250000000
-4.17730712890625000000
-10.38613891601562500000
-5.75122070312500000000
-9.14483642578125000000
-27.41030883789062500000
-29.99526977539062500000
-33.77014160156250000000
0.64669799804687500000
0.11306762695312500000
6.52728271484375000000
-12.72979736328125000000
-17.84045410156250000000
-13.71221923828125000000
-2.83786010742187500000
-1.71286010742187500000
-7.26498413085937500000
-17.22198486328125000000
-23.50952148437500000000
-21.06341552734375000000
-15.35363769531250000000
-9.05981445312500000000
-5.81878662109375000000
-9.42700195312500000000
-4.11059570312500000000
1.50958251953125000000
6.36108398437500000000
6.39633178710937500000
2.14175415039062500000
-18.06344604492187500000
-17.29479980468750000000
-24.44927978515625000000
-11.88238525390625000000
-10.62353515625000000000
-7.49957275390625000000
11.08566284179687500000
12.06933593750000000000
16.46377563476562500000
-6.09054565429687500000
-5.42010498046875000000
-8.61578369140625000000
-0.85046386718750000000
-0.29364013671875000000
-3.21350097656250000000
-6.79183959960937500000
5.90270996093750000000
4.99389648437500000000
2.00799560546875000000
-12.11120605468750000000
-6.14028930664062500000
-11.26016235351562500000
-7.35070800781250000000
2.29382324218750000000
14.45965576171875000000
12.59588623046875000000
10.16186523437500000000
-1.83401489257812500000
-3.79089355468750000000
-3.54064941406250000000
-1.14395141601562500000
8.76367187500000000000
-2.01965332031250000000
-4.26614379882812500000
-3.96652221679687500000
-8.87606811523437500000
-3.76025390625000000000
-0.01690673828125000000
0.21707153320312500000
-2.36410522460937500000
-3.77966308593750000000
16.34265136718750000000
19.38189697265625000000
20.38275146484375000000
-1.32028198242187500000
2.17422485351562500000
1.10354614257812500000
3.58923339843750000000
-1.64410400390625000000
-3.16793823242187500000
-1.98342895507812500000
0.10537719726562500000
-2.08511352539062500000
6.67456054687500000000
9.85910034179687500000
6.98654174804687500000
6.45141601562500000000
3.93994140625000000000
0.15985107421875000000
2.76617431640625000000
4.80288696289062500000
13.51885986328125000000
16.35876464843750000000
12.71966552734375000000
2.34860229492187500000
1.71963500976562500000
0.17568969726562500000
9.98028564453125000000
0.88211059570312500000
0.05868530273437500000
-0.62841796875000000000
-0.90332031250000000000
0.07199096679687500000
-0.65069580078125000000
-0.87640380859375000000
11.43194580078125000000
17.26077270507812500000
8.84939575195312500000
0.88476562500000000000
7.73364257812500000000
4.19522094726562500000
7.87139892578125000000
4.62692260742187500000
2.43466186523437500000
4.14685058593750000000
2.14123535156250000000
14.60623168945312500000
19.42028808593750000000
16.49606323242187500000
1.14407348632812500000
8.90447998046875000000
5.24954223632812500000
6.85037231445312500000
-0.22906494140625000000
-0.71823120117187500000
-0.26745605468750000000
-0.25018310546875000000
12.38006591796875000000
17.43661499023437500000
18.20285034179687500000
12.19763183593750000000
5.26300048828125000000
3.09078979492187500000
2.72750854492187500000
1.65249633789062500000
2.23699951171875000000
1.00903320312500000000
4.21978759765625000000
5.65185546875000000000
7.13766479492187500000
4.23934936523437500000
11.17727661132812500000
6.63677978515625000000
10.41275024414062500000
6.16400146484375000000
0.32272338867187500000
0.95639038085937500000
0.29141235351562500000
-0.00512695312500000000
3.26437377929687500000
0.30145263671875000000
0.00863647460937500000
0.21936035156250000000
23.62484741210937500000
29.95648193359375000000
24.43475341796875000000
0.69409179687500000000
13.04272460937500000000
15.65139770507812500000
10.93728637695312500000
8.87677001953125000000
1.64871215820312500000
0.56033325195312500000
1.45614624023437500000
1.33285522460937500000
1.89541625976562500000
-0.74111938476562500000
0.51904296875000000000
12.14187622070312500000
6.53192138671875000000
6.51947021484375000000
2.30899047851562500000
2.22668457031250000000
-1.65307617187500000000
-0.03491210937500000000
0.03652954101562500000
0.00177001953125000000
0.03320312500000000000
0.94131469726562500000
3.50112915039062500000
1.76232910156250000000
0.30404663085937500000
-1.03598022460937500000
23.69680786132812500000
27.47958374023437500000
21.22338867187500000000
18.07550048828125000000
-0.30993652343750000000
0.71612548828125000000
0.18261718750000000000
6.89138793945312500000
10.19085693359375000000
6.41479492187500000000
-0.04437255859375000000
-0.01528930664062500000
-0.12756347656250000000
0.08950805664062500000