VARIABLES = "X", "Y", "P", "U", "V", "L2Error", "divergence", "vorticity"
ZONE NODES=2001, ELEMENTS=3840, DATAPACKING=BLOCK,
VARLOCATION=([6, 7]=CELLCENTERED),ZONETYPE=FETRIANGLE
-1.00000000000000000000
-0.97478885812253568410
-1.00000000000000000000
-0.94957771624507136821
-0.97478885812253568410
-1.00000000000000000000
-0.89822250383627055825
-0.92375358747351765665
-0.92390011004067096323
-0.94928467111076475504
-0.94943119367791806162
-1.00000000000000000000
-1.00000000000000000000
-0.97464233555538237752
-0.97464233555538237752
-0.96114236119859441931
-0.92228472239718883863
-0.93593121932113010342
-0.84228066141128354882
-0.85642489901418605847
-0.88228269190423613821
-0.87056913661708856811
-0.89642692950713875888
-0.88439582022667950767
-0.91007342643107991265
-0.89194758905508098046
-0.88567267427389129164
-0.91747867269232807885
-0.87205594063222202639
-0.90465196237806755342
-0.87886430745305665901
-0.93724798412391319147
-0.91146032919890229707
-0.96862399206195659573
-0.94326632761733897325
-0.86556375256440620802
-0.85173706895481515744
-0.83290500129254185779
-0.82315025862393143008
-0.80401985583657931134
-0.83729449622683393972
-0.76353227524114630764
-0.79821863826684413823
-0.78377606553886280949
-0.81846242856456052905
-0.85928883778321663023
-0.79111073972563028534
-0.81868920421011415200
-0.82579710275132800490
-0.84537257242116803369
-0.85218093924200277733
-0.90417596197738792085
-0.93629598332255370430
-0.93677198372323344788
-1.00000000000000000000
-1.00000000000000000000
-0.96814799166127685215
-1.00000000000000000000
-0.96814799166127685215
-1.00000000000000000000
-0.96862399206195659573
-0.79957021311113585238
-0.75685976481098815594
-0.78043981032378373364
-0.66640839507448712542
-0.69125315600995074217
-0.71163407994273764068
-0.71609791694541435891
-0.73647884087820125742
-0.73981509609328033328
-0.76005888639099683513
-0.82740471790310821110
-0.80072134969205421839
-0.78275349517399439581
-0.74527731302919197898
-0.72702235081723765031
-0.77285577751367595667
-0.68788000841080443326
-0.73531675179239941453
-0.70745117961402104179
-0.75488792299561602306
-0.86780223784964893863
-0.86354853506707585087
-0.89992225919481483309
-0.85370919052086868817
-0.89129959211278042552
-0.85862886279397221401
-0.92888999370469227390
-0.89621926438588406238
-0.96444499685234608144
-0.93259298851362304461
-0.82315101512053512334
-0.73002763376728907474
-0.77217525912377382724
-0.77746437714888405601
-0.81294222482232125770
-0.81786189709542478354
-0.58008597461896216352
-0.62720589760195921691
-0.60228576956618118388
-0.67432582058495638133
-0.64940569254917823727
-0.62448556451340020423
-0.71892904791305134449
-0.69521186876518537012
-0.64544697979394372034
-0.67029174072940733708
-0.66159740056112914530
-0.68116857176434586485
-0.63531479271145396837
-0.70067408570109701582
-0.60770038366520806594
-0.65482030664820523036
-0.89008314883876260559
-0.92645710715665663404
-0.92767355043067445397
-1.00000000000000000000
-1.00000000000000000000
-0.96322855357832826151
-1.00000000000000000000
-0.96322855357832826151
-1.00000000000000000000
-0.96444499685234608144
-0.55325256173469528065
-0.57545235668191430101
-0.52641914885042850880
-0.61861750198653753241
-0.57082660889858793940
-0.59765608670599412733
-0.46947737649037718510
-0.49794826267040281920
-0.52015199269448253450
-0.54862287887450822410
-0.68999262448841702788
-0.73208443612029439063
-0.68980623497809689937
-0.77417624775217175337
-0.73189804660997426211
-0.68961984546777677085
-0.81394271913652027628
-0.77317575343797284582
-0.68874992693929060206
-0.73089755229577524354
-0.55460271189857712759
-0.52911944917819209167
-0.58221712094482303002
-0.47534289828277981327
-0.52968840134177264112
-0.50223117373048598022
-0.58403390440076552448
-0.55657667678947886358
-0.63595695640578497887
-0.60967434855610980193
-0.84590046440185129306
-0.88535286196367524170
-0.84785818697456583060
-0.92480525952549930135
-0.88731058453638977923
-0.84981590954728036813
-0.96240262976274970619
-0.92563118334107796770
-0.85176255003407452815
-0.88813650835196855660
-0.80706610302782766375
-0.80902382560054220129
-0.76823174165380414546
-0.81199607864972600524
-0.72911218307111058667
-0.77120399470298794942
-0.64789354150838307511
-0.60790707460596160594
-0.64876346003686924391
-0.52426960088816354499
-0.56630865575127331546
-0.56608833774706257547
-0.60834771061438297490
-0.60812739261017223491
-0.64917016755140000139
-0.64898377804107987288
-0.59597048950336350970
-0.48790946071159668751
-0.50047602314041350624
-0.54225496377058957087
-0.51237281201428852562
-0.55419154887318755609
-0.52961267519179144880
-0.50277926230752467696
-0.47913937576462073409
-0.44578499480477612460
-0.42209261311917506410
-0.47425588098480175869
-0.37192282050711261698
-0.42553109813586664778
-0.39700771681314384054
-0.45061599444189792685
-0.50412941247140641288
-0.39858519069795617096
-0.42524756088879966942
-0.45219346832671020175
-0.45029522958578971359
-0.47718350503349588054
-0.88405867130744630877
-0.92221687821304121346
-0.92351106886927025741
-1.00000000000000000000
-1.00000000000000000000
-0.96110843910652055122
-1.00000000000000000000
-0.96110843910652055122
-1.00000000000000000000
-0.96240262976274970619
-0.80573886799955052318
-0.76690450662552689387
-0.76557727159724975330
-0.68785785708277336070
-0.68572308967712969352
-0.72697741566546691949
-0.68304700041990007442
-0.72431213600857491386
-0.68438504504851493948
-0.72565018063718977892
-0.34143454882034413034
-0.36651944512637535389
-0.31094627713357564369
-0.41546285530205057102
-0.36144833411372395693
-0.39177047361644951051
-0.24629390202320239345
-0.27862008957838901857
-0.30387111806846317519
-0.33619730562364980031
-0.52421340832183327407
-0.52415721575550311417
-0.56625246318494304454
-0.52453013225628630778
-0.56641478921003018954
-0.52434367400589465547
-0.60829944616377418232
-0.56622833095963864825
-0.64914603532609560510
-0.60832357838907857861
-0.45037911896623217256
-0.42541533964968453185
-0.46294568139504899129
-0.37354725548040290661
-0.41197939518082660193
-0.39948129756504369148
-0.45041153488125035276
-0.43791343726546744231
-0.48734056788470692112
-0.47544377901083190174
-0.56441004515890669246
-0.60428995806152718817
-0.60629470211265068524
-0.64366847924071368681
-0.64500652386932844085
-0.64701126792045193792
-0.34728854346935389419
-0.32265426643159522690
-0.37395091366019744816
-0.27121557317421796096
-0.32355737002894680021
-0.29693491980290659393
-0.37589916688367558395
-0.34927671665763537767
-0.42562103258322769861
-0.40057336388623765444
-0.84427035313401344041
-0.84264024186617558776
-0.88242856003960845612
-0.84101788464441074034
-0.88115135634576602364
-0.84182906325529316405
-0.92128482804712130694
-0.88196253495664844735
-0.96064241402356065347
-0.92175085313008131571
-0.80150146074363759485
-0.80231263935452001856
-0.76198503684286444937
-0.80410875673171267053
-0.72251601863138226189
-0.76378115422005710133
-0.40065725326668005790
-0.29739877254957686192
-0.32358197192493576289
-0.34974056940430564566
-0.34856461370266933475
-0.37449865578731011961
-0.21948381077987977328
-0.19267371953655715311
-0.25180999833506639840
-0.13724664356125307330
-0.19733783803502386034
-0.16496018154890512708
-0.25742903250879461963
-0.22505137602267588637
-0.31467592650795361831
-0.28418765482118513166
-0.36704316529514435796
-0.40695315140119769914
-0.40671144678246345938
-0.44686313750725098481
-0.44662143288851674505
-0.44637972826978256080
-0.48569663488176861854
-0.48551017663137707725
-0.48532466457897305290
-0.48526847201264283749
-0.36864530266825812355
-0.40831358415557722497
-0.37024744004137188913
-0.44839563157551642902
-0.37189734776088739787
-0.41032948746131114870
-0.23863863522306660858
-0.26435798185175524155
-0.20606169727191525620
-0.29004164947019495102
-0.17165417041658415087
-0.23174536489035493791
-0.51855522993006919474
-0.55983056207028558671
-0.51939128034450143812
-0.60110589421050197867
-0.56066661248471783008
-0.52022733075893368149
-0.64207644731520097103
-0.60269792613601458342
-0.52237873150761005014
-0.56225864441023043483
-1.00000000000000000000
-0.96064241402356065347
-1.00000000000000000000
-0.88069791106200634445
-0.92037793747960183754
-0.92083138276336162775
-1.00000000000000000000
-1.00000000000000000000
-0.96018896873980086326
-0.96018896873980086326
-0.67969461145658571777
-0.72015398167169664134
-0.67986496211436986403
-0.76061335188680767594
-0.72032433232948078761
-0.68003531277215401030
-0.80081561826560920814
-0.76129919436483606265
-0.68154115659602698685
-0.72101017480750928534
-0.10356488471036558174
-0.13127842269801762165
-0.06988312585947809019
-0.18570589007928564595
-0.12511787813536889846
-0.15889579883596302579
-0.00047765256726827745
-0.03518038921337318659
-0.06279776535131859072
-0.09750050199742349433
-0.55895506081938839404
-0.59935489170870759335
-0.60023039295960478601
-0.63952475158264665556
-0.63969510224043080182
-0.64057060349132799448
-0.21287742383203317464
-0.25330804831110459441
-0.22732810844944748019
-0.29373867279017601417
-0.26775873292851892771
-0.24177879306686178573
-0.33364296413528948815
-0.30866032235755591628
-0.25649718312053987335
-0.28268038249589877431
-0.35844631255988301799
-0.40000462507120038147
-0.36014998979424145409
-0.44156293758251774495
-0.40170830230555881757
-0.36185366702859989019
-0.48304653491940202636
-0.44421303754488439264
-0.36444841616187212407
-0.40435840226792540975
-0.25208847928176619790
-0.29129953473149922116
-0.29251910376083761767
-0.32917135001332176181
-0.33077348738643552739
-0.33199305641577392390
-0.39871714170190819537
-0.43898797084393337276
-0.44027545421322555885
-0.47877160038700128375
-0.47960765080143352712
-0.48089513417072571322
-0.20968904927966186547
-0.17711211132851051309
-0.14816252538510576997
-0.10855078862405415085
-0.07985493368685521454
-0.14295831547938522843
-0.02429432291889391596
-0.08622842415199984123
-0.05207462830287456351
-0.11400872953598048531
-0.84119954475285563245
-0.88081547933277659634
-0.84072438684915662410
-0.92043141391269756024
-0.88034032142907758800
-0.84024922894545761576
-0.96021570695634883563
-0.92040467569614969889
-0.84063355679493412254
-0.88031358321252972665
-0.80097030066686736305
-0.80049514276316835470
-0.76074105658087920467
-0.80043129041613259034
-0.72021783401873240571
-0.76067720423384344031
-0.16677522977600864329
-0.18122591439342294883
-0.12067303571998411194
-0.19497065922598377785
-0.07248367931943901221
-0.13441778055254494095
-0.07382361196295746109
-0.04014185311206996953
-0.01040058036466185581
0.02918683128010568159
0.05885131512747963922
-0.00551590536599922548
0.11653914171223780927
0.05306928067378798020
0.08769522841985871731
0.02422536738140889170
-0.51733745223694627136
-0.55803816818791518450
-0.51697768207380589978
-0.59873888413888398663
-0.55767839802477470190
-0.51661791191066541717
-0.63921674779773485220
-0.59904688792379578999
-0.51758657092036730596
-0.55798640180968650526
0.01027577257718817645
-0.01750453280679247284
0.04484586807327026886
-0.04512775702575853864
0.08069250489275403559
0.01722264385430420652
-0.20881162811057563111
-0.20474583238911811534
-0.24802268356030865437
-0.19767850776937506696
-0.23989915651914198169
-0.20121217007924657727
-0.28211980526890889642
-0.24343281882901351976
-0.32458148528202662719
-0.28670967000020408655
-0.31865871411111340583
-0.32036239134547184193
-0.27887111566234379367
-0.32198673614875439331
-0.23827481171585943032
-0.28049546046562634505
-0.35264403543362365934
-0.39422020212312347542
-0.35357065487458250175
-0.43579636881262334702
-0.39514682156408231783
-0.35449727431554128865
-0.47717579937134624313
-0.43739216982827833213
-0.35647179343771218107
-0.39674262257973735846
-0.88130011548702980040
-0.92140068622120396835
-0.92091605006695076430
-1.00000000000000000000
-1.00000000000000000000
-0.96070034311060203969
-1.00000000000000000000
-0.96070034311060203969
-1.00000000000000000000
-0.96021570695634883563
-0.39389628410421412275
-0.43514853277480458615
-0.43547245079371399434
-0.47624299250587542875
-0.47588322234273500166
-0.47620714036164435434
-0.80181054643422289274
-0.76158130234823473437
-0.76242154811559026406
-0.68004814571717364657
-0.68040167997776168640
-0.72057136827932044554
-0.68381907604972358428
-0.72312031208265692417
-0.68211037801374263534
-0.72141161404667597523
-0.55912723647899631452
-0.60091702072104635768
-0.59982795242996522767
-0.64236804838538497098
-0.64065935034940402204
-0.63957028205832289203
-0.16675852002995711354
-0.12065632597393258219
-0.12063961622788103856
-0.02569475032336050388
-0.02709517772782709180
-0.07388410672390560707
-0.02976224237126446487
-0.07520092929957275518
-0.02842871004954578007
-0.07386739697785406344
0.14916544324535530031
0.12032152995297623610
0.18179174477847281910
0.06182169702762075475
0.12412104662250979248
0.09148618087499471585
0.24526690884400445536
0.21352932681123865111
0.18469397773325713086
0.15295639570049129885
-0.16269272430849957001
-0.07229556274638739011
-0.11482888312151030841
-0.11773424967469567348
-0.15625369544544268074
-0.15978735775531421881
0.14743732303156945052
0.17833550435090109176
0.11159068621208567684
0.23664132124098730126
0.17167231293407886339
0.20748841279594421039
0.10670330462717042552
0.14251940448903577252
0.04120449085413825652
0.07577458635022034372
-0.18993232394304396249
-0.23202358429083946856
-0.19155729287007225436
-0.27411484463863494687
-0.23364855321786776043
-0.19318226179710054624
-0.31628057859925895468
-0.27649298015048939803
-0.19543038478323782048
-0.23602668872972215608
-0.31210813341654264352
-0.31303475285750148593
-0.27157223139946168322
-0.31430605947708811776
-0.23075227767125283673
-0.27284353801904831505
-0.84224480466702122960
-0.84329006458118671574
-0.88234537540119539756
-0.84698113100033511902
-0.88485517543086067427
-0.84513559779076086187
-0.92272921986138611850
-0.88300964222128641712
-0.96136460993069305925
-0.92206495304129498791
-0.72518811070250022155
-0.76655714535527685882
-0.76448934673543356144
-0.80676913817780593341
-0.80492360496823178728
-0.80285580634838848990
0.01640647245523260689
0.05710726782935913320
0.01500604505076602070
0.13520011361637182534
0.09356899052970762964
0.09615369072286547580
0.05193786744304343395
0.05452256763620128011
0.01108781253588948454
0.01242134485760817107
-0.34960101516044800318
-0.39182199725658584111
-0.34983270775581898349
-0.43404297935272367903
-0.39205368985195676590
-0.35006440035118990828
-0.47569021579483494744
-0.43459575606376410484
-0.35135421789240678381
-0.39260646656299724722
0.08190528622826477589
0.21099990237201626808
0.18535848350304526266
0.14603089406510783022
0.16027929855970854400
0.12123287566620219446
-0.52501484340228798953
-0.56497817935314365023
-0.52241636447034478508
-0.60494151530399919992
-0.56237970042120033476
-0.51981788553840158063
-0.64438029567686139210
-0.60292926801252277880
-0.51857766888767398150
-0.56036745312972402466
0.27479529751206827060
0.30432368618013211359
0.24305771547930246634
0.35985161970998480463
0.30039516419348871734
0.33208765294505848686
0.24093870867699263005
0.27263119742856234407
0.17873892519461520578
0.21136522672773272458
0.20963710651394684703
0.32945583805104261543
0.29906005639210037073
0.26999938253454647263
0.26785068881654383599
0.23869778037150074512
-0.15403801812208031685
-0.11261320579814793064
-0.11039752847478555287
-0.02828569189661347266
-0.02680914142196248046
-0.07081901227173639790
-0.02408439189001400360
-0.06724096018239977823
-0.02544676665598824203
-0.06860333494837402013
-0.15178989513594304261
-0.06579216546368168994
-0.10749993903734939016
-0.10894873375606747845
-0.14871613149019669020
-0.15034110041722498208
-0.39350677640578757277
-0.43741253765112714236
-0.43572775850192541069
-0.48121369052670759370
-0.47861521159476438925
-0.47693043244556265758
-0.31070617692658231146
-0.27017027490950135116
-0.26876831841954101909
-0.18821163598774301451
-0.18649094803244206653
-0.22903158971595188875
-0.18418458132023021734
-0.22647644986988563209
-0.18533776467633614193
-0.22762963322599155669
-0.88616673478914498308
-0.92535233857795484713
-0.92404077921967053832
-1.00000000000000000000
-1.00000000000000000000
-0.96267616928897736805
-1.00000000000000000000
-0.96267616928897736805
-1.00000000000000000000
-0.96136460993069305925
-0.30814681318175629610
-0.30837850577712727640
-0.26669261120306464452
-0.30941635938536549144
-0.22543859626164741705
-0.26773046481130280405
-0.69503948427682227251
-0.73315553180690007373
-0.69187912592285794044
-0.77127157933697798597
-0.72999517345293574166
-0.68871876756889360838
-0.80912635516865649699
-0.76891436234612742240
-0.68626892180930854082
-0.72763795646208517809
-0.56808909981332056383
-0.61116335622435302710
-0.60805243576417611351
-0.65310142025058759430
-0.64994106189662326223
-0.64683014143644634864
0.13862181801661799252
0.14204352241686418745
0.09699069492995381070
0.14901069312281622903
0.10482612574206005840
0.14552710776984020824
0.06064155836130388777
0.10134254038908403761
0.01543965799501971145
0.05628971290217366086
0.18725284012052345606
0.21233202506386017472
0.23930556662467508677
0.26345032675483059936
0.29025933226867395298
0.23780890788585962170
0.34043258788040819951
0.28986907725254162926
0.31534596007454107625
0.26478244944667450600
0.01691620846967070366
0.10540271433221057307
0.06179473554160490323
0.06121814695145439550
0.01885517182579544981
0.01749279705982121139
0.30297948652934114655
0.36069206421467780999
0.33250787519740498954
0.46909276481721928764
0.44261305896696367945
0.41489241451594854881
0.41613335311670807126
0.38841270866569294062
0.38799248641334643795
0.36022851964842006467
0.29488357733290004870
0.32609294490845652792
0.35312583342481274062
0.38690412670364587866
0.41395663369730695269
0.35650834504470363395
0.46448338096432634226
0.40880460719456956920
0.43922000733081667523
0.38354123356105984666
-0.14770282473254137123
-0.10648663227969409895
-0.10547332552203879386
-0.02328791076330179177
-0.02249142963658957994
-0.06499568433696947811
-0.02105570434729706411
-0.06326451493466793419
-0.02177356699194332029
-0.06398237757931418690
-0.14598213677724042325
-0.06181344028485846048
-0.10257117622241986032
-0.10402225087222932709
-0.14337787877132504577
-0.14453106212743097037
-0.34881802704397213422
-0.39356366551381383179
-0.34849518804864765276
-0.43830930398365558487
-0.39324082651848940584
-0.34817234905332322681
-0.48166207369297175944
-0.43786092081739136361
-0.34888668210688561500
-0.39279244335222518458
0.19067454452076965099
0.29218852972513964517
0.24394447156987106307
0.24162501909727307492
0.19647758234634365992
0.19299399699336761138
0.32169258284674334680
0.43366835473475379148
0.40285332850518124070
0.37798958096499701842
0.37164295819279469235
0.34655633038692756909
-0.85502451611000662712
-0.89107864066312547635
-0.85305475960128163138
-0.92713276521624443660
-0.88910888415440048060
-0.85108500309255652461
-0.96356638260812221830
-0.92624255189709958636
-0.84903306704644587732
-0.88821867083525574138
-0.73619163459612713130
-0.77734378491543199008
-0.77430768212620493252
-0.81618415051271930860
-0.81421439400399431285
-0.81117829121476725529
-0.17215241531579866807
-0.21698854179272933362
-0.17494150544290254512
-0.26182466826965999918
-0.21977763191983323843
-0.17773059557000644992
-0.30571284171505397342
-0.26425863973636232185
-0.18095758844511833363
-0.22221160338653556110
-0.54959226682594719549
-0.58650267533753053240
-0.54336101015311033535
-0.62341308384911386931
-0.58027141866469367226
-0.53712975348027347522
-0.65922628406296812642
-0.61728822003673344820
-0.53107229844128078788
-0.57414655485231325116
-0.30418847343603339084
-0.30386563444070896489
-0.25955891982809470298
-0.30499850866149158524
-0.21585566757194668552
-0.26069179404887732332
0.14867144896920228558
0.14833220481558834214
0.10506347017859662962
0.14861428866607268029
0.10567583203858421648
0.14847324674083051121
0.06273737541109573879
0.10553479011334204740
0.01932649176054086759
0.06226605547635032101
0.41573943359930598529
0.44388030030266761861
0.47162724748862716595
0.49680976677973148758
0.52452676874224368753
0.47033006092947587939
0.57662416794380799701
0.52412570771621758148
0.55057546834302584227
0.49807700811543542674
-0.50018946251234619460
-0.49395820583950933447
-0.45078665819874524923
-0.48771952873196455780
-0.39980234262135871948
-0.44454798109120041705
0.49343026542236856358
0.46816689178885884104
0.52237714988041072939
0.44279194059296705932
0.54950065891210941871
0.49700219868451894767
0.02012297288725307942
0.10615360551774960518
0.06369292236942653007
0.06321514889026114137
0.02131860901106473472
0.02060074636641847506
0.33652927924449804742
0.33262597060858789533
0.28828522108922949307
0.32707029333984710684
0.28305684665102065489
0.32984813197421747333
0.23904339996219420295
0.28583468528539102138
0.19402704654250521599
0.24149393576603261913
-0.14316637323715600272
-0.10235967068825083115
-0.10214816515408178810
-0.02057447907719495150
-0.02009325380709283890
-0.06133221501475635135
-0.01924236244323839287
-0.06069526379866008875
-0.01966780812516561588
-0.06112070948058731523
-0.13993938036204411901
-0.05720416925790778456
-0.09516597607257717972
-0.09865707061332948391
-0.13365919569418793778
-0.13644828582129181482
-0.89226289885402065849
-0.92950128159803468986
-0.92831702340713961874
-1.00000000000000000000
-1.00000000000000000000
-0.96475064079901740044
-1.00000000000000000000
-0.96475064079901740044
-1.00000000000000000000
-0.96356638260812221830
0.39166953661445896850
0.42287990692684551686
0.44290648534850973750
0.48423948670418348605
0.50399559244404057434
0.45342446047461093528
0.54226206530197640365
0.49258427532524307058
0.52312882887300848900
0.47345103889627515592
0.19368780238889127254
0.28237106916756360420
0.23767184499528007380
0.23835762247873715225
0.19314306683067639092
0.19300202490543422185
-0.69449065005453447519
-0.69394181583224656684
-0.73564280037383933397
-0.69137012562068789201
-0.73291066491282164108
-0.69265597072646722943
-0.77445120420495527913
-0.73419651001860097850
-0.81473786015748095313
-0.77589749456019363461
-0.58601430154890787882
-0.62243633627186845114
-0.62292471006049110471
-0.65690323094627811606
-0.65818907605205745348
-0.65867744984068021807
0.59983678891659453214
0.57378808931581248842
0.62304940988938117830
0.52001826189278510526
0.57094375896835103390
0.54773526385529736071
0.66670813616169566362
0.64487877302553842096
0.61882594756502329325
0.59699658442886605059
0.38408849935603606163
0.42774441083166386823
0.38018519072012590954
0.51238710807478304865
0.46613305618983846834
0.47006575945322348620
0.41987900430489388803
0.42381170756827890589
0.37347464882237046968
0.37625248745674089168
-0.15804781319246058446
-0.14394321106912252861
-0.20175106544860860192
-0.11491560424767789661
-0.17418217557056611677
-0.12942940765840021955
-0.23344874689345432306
-0.18869597898128842584
-0.29113338696871321476
-0.24650383336077452689
0.52185496120410712617
0.55080184566214929198
0.57922654144388796560
0.60513960377483300146
0.63365503960585800591
0.57801609474313431214
0.68783459056293771994
0.63353056600341284277
0.66074481508439786293
0.60644079052487298576
0.43532544809008677511
0.53469444890849515684
0.52712683251501391002
0.48501665893176182376
0.51975697029489853485
0.47743562167333886137
0.02047072789368607759
0.06284504125204787295
0.06199716013466921583
0.14752451304788999353
0.14643473742970733453
0.10506382989956693230
0.14518029681587493740
0.10358872847527207661
0.14580751712279113597
0.10421594878218827518
-0.52990542516435423792
-0.48050262085075323704
-0.51021858350276128036
-0.37923506726162814484
-0.40965210747928421098
-0.43021938283901473010
-0.46951806749647700956
-0.48986832549961911720
-0.43958508748788061027
-0.45993534549102277342
0.10427349191592695521
0.06336668701597897302
0.06268192357532409442
0.02206216228637029181
0.02163671660444306533
0.02095195316378818673
0.57964026817289771021
0.56050703174392979555
0.61701847104381901676
0.54161106694396421446
0.65242653080337831284
0.59812250624385354669
-0.85973730146319504719
-0.86445008681638357828
-0.89697568420720918958
-0.87267947988036942419
-0.90463360406245896250
-0.86856478334837650124
-0.93658772824454838979
-0.90051890753046603955
-0.96829386412227425041
-0.93304450492129153982
-0.13336164167265601721
-0.09486842205104528691
-0.09457086802951339410
-0.01838601153672120292
-0.01752966063020401644
-0.05634781835139059808
-0.01583790921815576846
-0.05520438862383458128
-0.01668378492417989245
-0.05605026432985870527
-0.73803282651661694658
-0.78469552741254611217
-0.77957336580875069565
-0.82868750364645782369
-0.82457280711446490074
-0.81945064551066937319
0.32467153400758907988
0.32227277467533110844
0.27997230983530557724
0.31963127965475790493
0.27703693901793180476
0.32095202716504450668
0.23444259838110576011
0.27835768652821846203
0.19152844352358922020
0.23605722168819293083
-0.56632745988731492126
-0.52651268510745574680
-0.58350730271843453956
-0.54686294311059790996
-0.63743871416956121578
-0.60297181949515143984
-0.14605185619915514450
-0.17718810815063240627
-0.20531842752204337854
-0.24111964640974667407
-0.26893057994980018588
-0.20915387728018952629
-0.29674151348985366994
-0.23696481082024303810
-0.32277977026691290208
-0.26509513019165398262
-0.11925703954931796136
-0.04021170013872224502
-0.06458549105928872158
-0.07957817954440105090
-0.08975054765348330910
-0.10426435106420561816
-0.29955303353339340910
-0.35798642065704011639
-0.32736396707344689316
-0.41375224407675859073
-0.38381926406816213593
-0.35319681048456896821
0.76294307787431547840
0.71772032472673619186
0.73946441592095113471
0.67249757157915690531
0.69424166277337184816
0.71598575396758679101
0.62456086976148239565
0.64777349073426904180
0.69134694506464122732
0.66951758192848398465
0.19043866790540653344
0.27619560135109599841
0.23275992304743409189
0.23360126071426992600
0.18897010993165452852
0.18959733023857072709
0.74482888520088641471
0.72671469252745723999
0.69960613205330712816
0.70727464154519747996
0.68018486606665762295
0.65307630559250751112
0.50796701109229835946
0.50354691410981367028
0.46171295920735377916
0.49754307095923672177
0.45521120489166166934
0.50054499253452522378
0.41287933882408661690
0.45821312646695011583
0.36997481608196686187
0.41637917156449022471
0.57936804189819235411
0.61647401849440830457
0.57180042550471110729
0.68848554727886579485
0.64503814076047250037
0.65247978288663710522
0.60159073424207920588
0.60903237636824369972
0.55698892115843112727
0.56435878337854661346
0.13392728968755532315
0.09538009745093620206
0.13657906488177123938
0.05683290521431709486
0.09803187264515211830
0.13923084007598712786
0.01879527138553935273
0.06009979611514803394
0.14220556844593101875
0.10129876354598305044
0.61674624476911366067
0.68836409128270847901
0.68889359200247923809
0.65295603152314907192
0.68868956964067251647
0.65268380524844382684
0.45318857600123751972
0.40883408104323831767
0.41085670993366246728
0.36423268034899813905
0.36555342785928468530
0.36757605674970883491
0.02186992065542695332
0.02102404494940282934
0.05957775052900967511
0.01965162229205653921
0.09675252010828250260
0.05820532787166338151
-0.90511712192091153817
-0.93755476396145376317
-0.93707124610300107648
-1.00000000000000000000
-1.00000000000000000000
-0.96877738198072682607
-1.00000000000000000000
-0.96877738198072682607
-1.00000000000000000000
-0.96829386412227425041
-0.49771664296811657380
-0.52591521843975608252
-0.55471126057909536655
-0.57873689302814812496
-0.60761785261917888867
-0.55232605573395210374
-0.63649881221020976341
-0.58120701532498286745
-0.66393446891544882771
-0.61000305746432215148
-0.76409853484062129070
-0.79169453561665670271
-0.74655591456722869559
-0.81929053639269222575
-0.77415191534326421863
-0.72901329429383621150
-0.84598500813653076946
-0.80199303190261916896
-0.71019170995726210727
-0.75685441085319116183
0.01111523350889210421
0.03806837623593997688
-0.01325855741167437235
0.09355574689793501320
0.04150839574283084893
0.06581206156693750198
-0.01053895541227331187
0.01376471041183333251
-0.06272727982997559903
-0.03756222323578101846
0.78340588404693778379
0.75992722209357332908
0.80386869021955997816
0.71194055407637590882
0.75717297199105626504
0.73657936297932158354
0.84247771315997188601
0.82317320168976593209
0.79982534257551407553
0.78052083110530812160
-0.71910702137367898956
-0.70156440110028650547
-0.67411550790673679945
-0.68275605325202293194
-0.62642620046744246221
-0.65530716005847322592
-0.08640307468425154069
-0.05789054512082519172
-0.11753932663572880246
0.00206883636484480552
-0.05922669111198732711
-0.02791085437799019353
-0.12052221858881946581
-0.08920638185482232529
-0.18082093249928307688
-0.14885516336972592910
0.18671191082868293654
0.23050172394446249990
0.22824352484149093567
0.31718645593068889310
0.31474163220661988127
0.27375077762702698658
0.31180746647438278840
0.27002549565793687592
0.31327454934050136259
0.27149257852405539460
0.55297377507268696828
0.59356044207059088791
0.54855367809020227909
0.67364743014466943460
0.62980705442941076200
0.63360393610763021677
0.58596667871415208939
0.58976356039237143314
0.54175487483669437783
0.54475679641198282432
0.67697901277757610572
0.63693551874053677686
0.68031059541048266581
0.59757558815633504690
0.68439807134467423033
0.64095066482628093585
0.79054569514255701446
0.81814831241079855051
0.77243150246912795076
0.87155878573092349093
0.82699302551711029174
0.84485354907086107623
0.78242726530329720358
0.80028778885704787704
0.73513092793311751727
0.75457097891537716627
0.17882599460086223697
0.18147776979507815320
0.22372469951416917855
0.18373718245873904564
0.26776608299427595572
0.22598411217783004323
0.04882306338247482946
0.12395676377318134986
0.11398623785880739046
0.08678199419390852931
0.10377099237837120183
0.07602730704737367673
-0.27199192388401638443