VARIABLES = "X", "Y", "P", "U", "V", "L2Error", "divergence", "vorticity"
ZONE NODES=2001, ELEMENTS=3840, DATAPACKING=BLOCK,
VARLOCATION=([6, 7]=CELLCENTERED),ZONETYPE=FETRIANGLE
-1.00000000000000000000
-0.97555061021379119168
-1.00000000000000000000
-0.95110122042758249439
-0.97555061021379119168
-1.00000000000000000000
-0.90128905776568790653
-0.92608255641467795982
-0.92619513909663520046
-0.95087605506366790209
-0.95098863774562514273
-1.00000000000000000000
-1.00000000000000000000
-0.97543802753183395104
-0.97543802753183395104
-0.96229284021813965566
-0.92458568043627920030
-0.93784345043193084734
-0.84681281911722372513
-0.86058223870285632806
-0.88569924977675151823
-0.87435165828848893099
-0.89946866936238412116
-0.88782035802708847427
-0.91272643935803565718
-0.89526911292116095886
-0.88924916807663401119
-0.92006261157015090113
-0.87629195604372067674
-0.90779400304439661351
-0.88277056206017734397
-0.93929605004507255028
-0.91427260906085328074
-0.96964802502253633065
-0.94508605255437028170
-0.86955694312333386975
-0.85608824338473432647
-0.83782482848097983297
-0.82819443897109956687
-0.80957605882497551963
-0.84196385855673216980
-0.77028260117143554364
-0.80405371482620768830
-0.78992932999820553164
-0.82370044365297767630
-0.86353699827880692208
-0.79726977716906133331
-0.82425695316668701196
-0.83104089082383336695
-0.85027445460520389986
-0.85675306062166045606
-0.90741770970758084403
-0.93854346337144101131
-0.93891975670825678080
-1.00000000000000000000
-1.00000000000000000000
-0.96927173168572045014
-1.00000000000000000000
-0.96927173168572045014
-1.00000000000000000000
-0.96964802502253633065
-0.80515849202927525230
-0.76350416494132677947
-0.78654011188315120506
-0.67500184383962658075
-0.69937157350378931220
-0.71925300439047668011
-0.72374130316795204365
-0.74362273405463941156
-0.74701195216969384916
-0.76665868099646372613
-0.83304166566963577800
-0.80702416423111889010
-0.78979137529555076824
-0.75270613153099596992
-0.73512966189055628519
-0.77969330752862164857
-0.69745550866724748129
-0.74362344198139918028
-0.71629258527890193875
-0.76246051859305352671
-0.87234912733855329847
-0.86840629863338603123
-0.90347488100241357678
-0.85915375946319716416
-0.89537548739737116144
-0.86378002904829154218
-0.93159721533154515871
-0.90000175698246565048
-0.96579860766577252384
-0.93507033935149308501
-0.82909883696446839974
-0.73871130407280893859
-0.77996709947837039589
-0.78487923738696063758
-0.81956042947078378003
-0.82418669905587815805
-0.59052791222704326124
-0.63682182012829557927
-0.61223598470937889982
-0.68311572802954789729
-0.65852989261063121784
-0.63394405719171453839
-0.72669916460049166496
-0.70342851559874997047
-0.65447295051567055957
-0.67884268017983329102
-0.67140047042464856553
-0.69023754703630302298
-0.64534543218204976078
-0.70912269496005209124
-0.61793667220454651101
-0.66423058010579882904
-0.89425127569540674433
-0.92934879192761632449
-0.93047300362958074160
-1.00000000000000000000
-1.00000000000000000000
-0.96467439596380821776
-1.00000000000000000000
-0.96467439596380821776
-1.00000000000000000000
-0.96579860766577252384
-0.56387453743872306688
-0.58558260992105859444
-0.53722116265040276151
-0.62800103432897680378
-0.58100022481832691579
-0.60747214100502078260
-0.48057977378600341689
-0.50890046821820311695
-0.53078999930216519409
-0.55911069373436483865
-0.69938501596906132995
-0.74069974322706499947
-0.69945775998436765519
-0.78201447048506866899
-0.74077248724237132471
-0.69953050399967398043
-0.82058411497413286106
-0.78099078498171947693
-0.69849300633346067535
-0.73974880173902213265
-0.56557454683692154340
-0.54062118144679982557
-0.59298330681442479317
-0.48773653691841495350
-0.54153041144536784302
-0.51417885918260741729
-0.59532428597232067702
-0.56797273370956025129
-0.64638989731978413467
-0.62033485907718521890
-0.85068665991957848060
-0.88911559899900249881
-0.85298121505780222229
-0.92754453807842662805
-0.89141015413722624050
-0.85527577019602585295
-0.96377226903921331402
-0.92844666500302142076
-0.85721476482961156407
-0.89231228106182114423
-0.81308958658129870667
-0.81538414171952244835
-0.77549251324301893273
-0.81864512034054726097
-0.73743876460604007583
-0.77875349186404374535
-0.65831125747356145084
-0.61916700627987553140
-0.65934875513977475592
-0.53634407406385986583
-0.57782907959979445955
-0.57775554017186769862
-0.61931408513572916430
-0.61924054570780229234
-0.65934955055239519162
-0.65942229456770151685
-0.60724564612609810421
-0.50032912424217101943
-0.51292171156592702985
-0.55412299876912385344
-0.52463289281489344784
-0.56604435892290128063
-0.54058190898916869127
-0.51392853420084838589
-0.49063590575129406579
-0.45698773601785813714
-0.43339569824971285739
-0.48530843045005778169
-0.38335067759182445135
-0.43699329167155925857
-0.40837318792076865437
-0.46201580200050346159
-0.51562854359904697343
-0.41033823180577577716
-0.43732578601972715848
-0.46398084588551058438
-0.46253116146907102824
-0.48897348373326349202
-0.88757078800350930337
-0.92445491608744023715
-0.92599972708293343260
-1.00000000000000000000
-1.00000000000000000000
-0.96222745804372011857
-1.00000000000000000000
-0.96222745804372011857
-1.00000000000000000000
-0.96377226903921331402
-0.81101077865756332486
-0.77341370531928355092
-0.77133489739554828013
-0.69651421092952403580
-0.69364340588998674164
-0.73456795956650289270
-0.68886021587569623570
-0.73009755663562225791
-0.69125181088284148867
-0.73248915164276751089
-0.35231971229801006817
-0.37734222262695427119
-0.32128874700419568500
-0.42644772063827141029
-0.37231566749053934817
-0.40285568287012607502
-0.25519399866823094802
-0.28824137283621331651
-0.31375483307938512034
-0.34680220724736754434
-0.53568590792563242076
-0.53502774178740497568
-0.57717091346156701448
-0.53323645038174749544
-0.57559135897240198965
-0.53413209608457623556
-0.61794626756305648385
-0.57648700467523072977
-0.65866564176605890690
-0.61863017634939287959
-0.46287565548902076529
-0.43801477405962652156
-0.47546824281277677571
-0.38536725170328622880
-0.42406105475746952438
-0.41169101288145637518
-0.46275485781165281995
-0.45038481593563967076
-0.49954946593775634289
-0.48783828468878992490
-0.57246344013264471862
-0.61169042988354183077
-0.61481834872329921282
-0.65027532287961897772
-0.65266691788676434172
-0.65579483672652161275
-0.35861774178465033458
-0.33388480597747627332
-0.38560529599860171590
-0.28155278237989189716
-0.33482105528870620414
-0.30771879417868408524
-0.38808932819752056664
-0.36098706708749839223
-0.43791293255796776007
-0.41270755710862383481
-0.84845107868364388892
-0.84621549744770929724
-0.88533520676757482271
-0.84353693098844662046
-0.88319477770327792232
-0.84487621421807790334
-0.92285262441810922418
-0.88453406093290931622
-0.96142631220905461209
-0.92365377025277473066
-0.80481208532533377031
-0.80615136855496516421
-0.76608723966222103119
-0.80877519742162884420
-0.72747372776895868896
-0.76871106852888471117
-0.41305205112857357186
-0.30827435757280419182
-0.33499593276571654199
-0.36154263048161855432
-0.36018159223450141315
-0.38650535341267155953
-0.22767584772832472062
-0.20015769678841846546
-0.26072322189630708911
-0.14296934087776907996
-0.20496852507098956009
-0.17156351883309378659
-0.26696770926421004022
-0.23356270302631426672
-0.32515919342801724579
-0.29412822813420286261
-0.37654812894374850574
-0.41643625143191392857
-0.41717582939136332865
-0.45632437392007935140
-0.45706395187952875148
-0.45780352983897815156
-0.49478041215091339566
-0.49567605785374213578
-0.49707380195141903645
-0.49641563581319159137
-0.37887605148880920680
-0.41950375193642402971
-0.38120397403386990787
-0.46027919382531545800
-0.38328561286857809609
-0.42197941592276133616
-0.24795944303752748272
-0.27412545483631967080
-0.21436610369516304053
-0.30042625762084318453
-0.17866772228646604637
-0.24066690647968652650
-0.52339215125231886017
-0.56494066379260732269
-0.52501179786450835607
-0.60648917633289567419
-0.56656031040479670757
-0.52663144447669774095
-0.64767469610429595495
-0.60908980310821880799
-0.52993394742922261820
-0.56916093718011984137
-1.00000000000000000000
-0.96142631220905461209
-1.00000000000000000000
-0.88254108829347255316
-0.92154524559849859688
-0.92219893500830396604
-1.00000000000000000000
-1.00000000000000000000
-0.96077262279924924293
-0.96077262279924924293
-0.68340738282832391715
-0.72358114644426452244
-0.68384272923973776770
-0.76375491006020512774
-0.72401649285567837300
-0.68427807565115161825
-0.80364592052432581859
-0.76492107486121307947
-0.68656914576342398249
-0.72518265765668632472
-0.10789901896482395616
-0.13649319692014866279
-0.07282869705187883236
-0.19269290095118313255
-0.13019180323413531708
-0.16517475001127690515
-0.00050948295158745479
-0.03666909000173314281
-0.06535064309286138517
-0.10151025014300707472
-0.56350894045606914062
-0.60362572965981942108
-0.60505745299635749213
-0.64351655624407166911
-0.64395190265548551967
-0.64538362599202359071
-0.22042679498988720921
-0.26217030314194944562
-0.23572516656693348613
-0.30391381129401162653
-0.27746867471899572255
-0.25102353814397976306
-0.34464053149864892767
-0.31945487202986411202
-0.26628816026193580235
-0.29300973545484815252
-0.36395493147742247197
-0.40634518762862059660
-0.36658669574880198283
-0.44873544377981866571
-0.40897695190000005194
-0.36921846002018143817
-0.49098594708078308058
-0.45252990884994903631
-0.37288329448196499971
-0.41277141697013042254
-0.26036387216292744551
-0.30030094933596773732
-0.30210738031498968192
-0.33842453913985814928
-0.34075246168491879484
-0.34255889266394079495
-0.40412112480946771331
-0.44428731814151301016
-0.44651138096066583794
-0.48383973469691593516
-0.48545938130910537556
-0.48768344412825820333
-0.21795990906477544224
-0.18436656972241100005
-0.15436703574965898733
-0.11315937182624098700
-0.08334940277471289405
-0.14885775323493796729
-0.02534572093510416638
-0.08985637834238158206
-0.05434756185490852848
-0.11885821926218594069
-0.84377282740909997916
-0.88269192307488708593
-0.84308874307505465850
-0.92161101874067408168
-0.88200783874084176528
-0.84240465874100944887
-0.96080550937033704084
-0.92157813216958639480
-0.84297079486472803467
-0.88197495216975396737
-0.80384775627143700838
-0.80316367193739179875
-0.76392268513377403760
-0.80307978440060723280
-0.72366503398104897737
-0.76383879759698958267
-0.17297764103912594003
-0.18827601261617221695
-0.12552848708836464309
-0.20269528694681937520
-0.07543710401173440994
-0.13994776141901182909
-0.07691842069113581648
-0.04184809877819069268
-0.01086750050450255821
0.03039689578938013781
0.06130327453034772889
-0.00576271126076555174
0.12139907344903393127
0.05526578647226568913
0.09135117398969083702
0.02521788701292258447
-0.52231415261672642369
-0.56269505725989210632
-0.52163698447691497773
-0.60307596190305767792
-0.56201788912008066035
-0.52095981633710353176
-0.64324167236569085304
-0.60335084578143849399
-0.52217598379471119596
-0.56229277299846147642
0.01073242674228762870
-0.01826941417751673513
0.04681057441967942379
-0.04710845163960772353
0.08410482393435667059
0.01797153695758843192
-0.21561552275876869067
-0.21080425052765017213
-0.25555259993180895473
-0.20226829431313003704
-0.24572324453143221112
-0.20653627242039010459
-0.28917819474973438520
-0.24999122263869227867
-0.33286316184674147323
-0.29473957204285106126
-0.32408251001844612382
-0.32671427428982557917
-0.28421008855946977567
-0.32919832738495791169
-0.24323919143629990636
-0.28669414165460205268
-0.35653673029711585585
-0.39834235600295542223
-0.35765196842326801852
-0.44014798170879498862
-0.39945759412910758490
-0.35876720654942018118
-0.48177006648055692439
-0.44221764992515399939
-0.36136106901342135433
-0.40152726234546659567
-0.88339297681531037121
-0.92301312622152076326
-0.92231207248109736696
-1.00000000000000000000
-1.00000000000000000000
-0.96150656311076043714
-1.00000000000000000000
-0.96150656311076043714
-1.00000000000000000000
-0.96080550937033704084
-0.39804904603524832174
-0.43956136177338078763
-0.43985467174108788813
-0.48093775719505360566
-0.48026058905524215970
-0.48055389902294926019
-0.80521085502247857768
-0.76528578388481571793
-0.76664888263585728723
-0.68407889160562718178
-0.68475040038293044642
-0.72433654275835224201
-0.68983735266681345255
-0.72824311765133531438
-0.68729387652487194948
-0.72569964150939392233
-0.56439891131608876940
-0.60648367001545122612
-0.60477981595925445202
-0.64816051134113239485
-0.64561703519919078076
-0.64391318114299411768
-0.17260190711744785586
-0.12515275316668655892
-0.12477701924500848862
-0.02674782419951095280
-0.02814992746391773576
-0.07683920727614118595
-0.03069663882380295819
-0.07773682903440572167
-0.02942328314386034871
-0.07646347335446311566
0.15510647224891854767
0.12505857278957543954
0.18881387104880315020
0.06429332816015828622
0.12909613927190402571
0.09519970690112587730
0.25396572255889954262
0.22138979680385134641
0.19153093091540179804
0.15895500516035360183
-0.16779063488632933732
-0.07434649563118539417
-0.11799635243856781974
-0.12138668584178816112
-0.16013232337584892839
-0.16440030148310899594
0.15350107132805895782
0.18560306920708397049
0.11620682181338169714
0.24580747567203453663
0.17851320987419308506
0.21570527243955925356
0.11121894407635164737
0.14841100664171780199
0.04293661157062374223
0.07901475924801554251
-0.19262248266392997809
-0.23537613050534350601
-0.19460683868740069613
-0.27812977834675706168
-0.23736048652881422405
-0.19659119471087138642
-0.32104235491208976683
-0.28116993345311341868
-0.19942974451200071173
-0.24040064163517058105
-0.31573322045718477113
-0.31684845858333693380
-0.27492971061725368642
-0.31844849244808859368
-0.23377609664059184613
-0.27652974448200540181
-0.84536907115033965709
-0.84696531489157944605
-0.88498922055655016017
-0.85186374186015267895
-0.88844657076918753802
-0.84941452837586606250
-0.92502939967822228606
-0.88599735728490092157
-0.96251469983911119854
-0.92402126294987152466
-0.73115764859936027698
-0.77247794453190710140
-0.76956341358388224982
-0.81217084319602994569
-0.80972162971174332924
-0.80680709876371836664
0.01705421883179148584
0.05945415859868713460
0.01565211556738469942
0.14012724131625248214
0.09695050959953274705
0.09979069995746980837
0.05377377788281301196
0.05661396824075007328
0.01153856952950502689
0.01281192520944763810
-0.35530318812339356516
-0.39741568799409993096
-0.35487091015452532083
-0.43952818786480629676
-0.39698341002523174215
-0.35443863218565713202
-0.48092117024076636023
-0.43954477481909354220
-0.35548768124138652169
-0.39699999697951893207
0.08533655133751938404
0.21920933647120904864
0.19261119727038356064
0.15191507067336759706
0.16636921929331802139
0.12603267793453534762
-0.53405775040465719439
-0.57335281804428683827
-0.53027619265024150685
-0.61264788568391648216
-0.56957126028987126176
-0.52649463489582593034
-0.65124261917536496735
-0.60956577784968390965
-0.52440439375627612151
-0.56648915245563857823
0.28416220158909588633
0.31435868061929228556
0.25158627583404769013
0.37095297824512646345
0.31042334881890548681
0.34265582943220940226
0.24989371939268453793
0.28212620000598842562
0.18564639642085922766
0.21935379522074383019
0.21774839429988424033
0.34029187401824556591
0.30963076979136461286
0.27976224459202458927
0.27771912273169957475
0.24761691949922429168
-0.15749854928922549235
-0.11536257835194438370
-0.11272880426532093379
-0.02908950989010359450
-0.02748238095640423082
-0.07273936669748602701
-0.02456379949122820469
-0.06864630187827457097
-0.02602309022381621775
-0.07010559261086257710
-0.15465999948809616704
-0.06691632339872234658
-0.10926884730621649888
-0.11099882578576872327
-0.15094566498507322461
-0.15293002100854394265
-0.40009312442845818003
-0.44488306073352279491
-0.44220562429916454583
-0.48947040556908999465
-0.48568884781467436262
-0.48301141138031611355
-0.31433698813230459557
-0.27353347829237351085
-0.27213724596749333529
-0.19077683955566449026
-0.18893119644739900242
-0.23193045353232633055
-0.18685408181670426497
-0.22949566389209880013
-0.18789263913205161982
-0.23053422120744615498
-0.89000224469801625382
-0.92814074753587971767
-0.92658507360705100186
-1.00000000000000000000
-1.00000000000000000000
-0.96407037376793991434
-1.00000000000000000000
-0.96407037376793991434
-1.00000000000000000000
-0.96251469983911119854
-0.31303214405525625619
-0.31259986608638806738
-0.27076109998711900273
-0.31328793907657526141
-0.22880759090191163385
-0.27144917297730619676
-0.70447918925777719412
-0.74154431868555792384
-0.70064371573233841239
-0.77860944811333865356
-0.73770884516011903109
-0.69680824220689951964
-0.81523659498674572177
-0.77554369632262287748
-0.69332279743685654161
-0.73464309336940325501
-0.57752399425495060115
-0.62099023810524400790
-0.61681906189458024503
-0.66273471368151060101
-0.65889924015607181929
-0.65472806394540805641
0.14326211746756761789
0.14639699361888275364
0.10008538575084788280
0.15263686304902748803
0.10750140285447376542
0.14951692833395513471
0.06236594265992003588
0.10438146813940139823
0.01583465191805853711
0.05806986027136652739
0.19369885009326004432
0.21994082807032561133
0.24727045887026763427
0.27311587962836075816
0.30042428358468697969
0.24651774042753527016
0.35040686495179723670
0.29883866191103242160
0.32541557426824208044
0.27384737122747732085
0.01744178085175790427
0.10787165748555380129
0.06310645192208012844
0.06273619729100007869
0.01927132621542596014
0.01781203548283794708
0.31265706432281803462
0.37134840608673652662
0.34285354335301443385
0.48002855456065163242
0.45363378805286846962
0.42568848032369410728
0.42723902154508530682
0.39929371381591094448
0.39909599989510591289
0.37079885108218879619
0.30527739161759281927
0.33718903867725785739
0.36474730756315110192
0.39839477516499982590
0.42583657208487318835
0.36773367093811892836
0.47676990876278907416
0.42075860816297006028
0.45130324042383113126
0.39529193982401211738
-0.14979314804150231644
-0.10811633036264559071
-0.10696381341907466866
-0.02371895082101047048
-0.02287410215079273973
-0.06607147472850462278
-0.02140813545997129544
-0.06418597443952298032
-0.02214111880538201932
-0.06491895778493370073
-0.14794750493323682861
-0.06272542459016414162
-0.10404271372035699128
-0.10550326356971582997
-0.14544839776853063507
-0.14648695508387798991
-0.35902067392031222770
-0.40370866684911826949
-0.35754794501171671683
-0.44839665977792431129
-0.40223593794052281414
-0.35607521610312126148
-0.49122720509129075284
-0.44663986025572355310
-0.35568920211325738556
-0.40047913841832205595
0.19683372624457518008
0.30054630958070693847
0.25068575420961658473
0.24897810653994212338
0.20166130862932202250
0.19854137391424966919
0.33258579557391904080
0.44577536345234147763
0.41478081814189388110
0.38976406285252251926
0.38259384154684555890
0.35760255086329040264
-0.86047439278881854285
-0.89525444821748001445
-0.85853176819861232172
-0.93003450364614137502
-0.89331182362727368229
-0.85658914360840610058
-0.96501725182307063200
-0.92908762559101054634
-0.85422644273427938977
-0.89236494557214296464
-0.74483379361592372270
-0.78518839797407036230
-0.78189892304370456344
-0.82283139538144445257
-0.82088877079123823144
-0.81759929586087243258
-0.17631310797596991269
-0.22169358721254500688
-0.17865170330316096359
-0.26707406644912007332
-0.22403218253973605778
-0.18099029863035201449
-0.31118862728625684699
-0.26891758321811953802
-0.18392219022352812585
-0.22587569930873552249
-0.56135919177713855532
-0.59779841255550847379
-0.55467856086007283345
-0.63423763333387828123
-0.59111778163844275191
-0.54799792994300722260
-0.66935841129582773767
-0.62761393571956114457
-0.54102784017383220849
-0.58449408402412561525
-0.31283112023572590132
-0.31135839132713039046
-0.26664156655113957495
-0.31157464127612066740
-0.22147733726355472994
-0.26685781650012985189
0.15183000129193927052
0.15102313953485105302
0.10706479572846558379
0.15070635979935523285
0.10721666340907382020
0.15086474966710314294
0.06372696701879240755
0.10737505327682173029
0.01958158376378209969
0.06341670947043626105
0.42699913878617262730
0.45514216043615207674
0.48304529932721879115
0.50764189681222871009
0.53525523906380589878
0.48124713030444560280
0.58710738662110428798
0.53507634297416151181
0.56118131284245509338
0.50915026919551231721
-0.51192652893480183884
-0.50524589801773611697
-0.46249386609246506685
-0.49819729486046576694
-0.41075727000638861952
-0.45544526293519471682
0.50535758600139091268
0.47989091766243296977
0.53394526323999280670
0.45444093570604598975
0.56052632493054854734
0.50849528128360577117
0.02042643243399983391
0.10760999510144353408
0.06451363040353183531
0.06412029871116212143
0.02155274747178027167
0.02081976412636954779
0.34529768098084762107
0.34018849700989800544
0.29543712560975732284
0.33240349476754432745
0.28814204309978613816
0.33629599588872116644
0.24388059143202794887
0.29203454422096297716
0.19825872724052773233
0.24728317282082226680
-0.14536602620640148853
-0.10396034215822785862
-0.10387797059609871209
-0.02094239809427237212
-0.02047666072857344879
-0.06225968722446521830
-0.01970784310840094367
-0.06179290685224982788
-0.02009225191848719450
-0.06217731566233607871
-0.14243413461322534941
-0.05849022324003037149
-0.09727260337165979931
-0.10057528698387925570
-0.13679285567381485600
-0.13913145100100590690
-0.89634081564748557813
-0.93220723850615261341
-0.93112087107614693871
-1.00000000000000000000
-1.00000000000000000000
-0.96610361925307630671
-1.00000000000000000000
-0.96610361925307630671
-1.00000000000000000000
-0.96501725182307063200
0.40241608246894766676
0.43460305906399598896
0.45442529998609815234
0.49647829413628163930
0.51618667950977414893
0.46548374882583398726
0.55391560306684961557
0.50417045152647388395
0.53505114128831188225
0.48530598974793615064
0.19745186548343951483
0.28683894464144588099
0.24127439451534737902
0.24257749297368766395
0.19599037715735129206
0.19614876702509920214
-0.70417953790738474495
-0.70387988655699240681
-0.74453414226553138455
-0.70102391686067766496
-0.74163894595272539245
-0.70245190170883509140
-0.78225397504477311994
-0.74306693080088281889
-0.82136418391679577589
-0.78372118650942179663
-0.59749953557952939498
-0.63363987938192012361
-0.63393875635789920242
-0.66733189812129889429
-0.66875988296945632072
-0.66905875994543539953
0.60981182942072331699
0.58388575564207423341
0.63251627222034245701
0.53054044969951774657
0.58105234483838386073
0.55815379195109482424
0.67528175610399021611
0.65389901416216633656
0.62816705047118703842
0.60678430852936315887
0.39400165704388678822
0.43759644913597633975
0.38889247307293717260
0.52121655385136855809
0.47413852924320831761
0.47940650149367247668
0.42706050463504813264
0.43232847688551223619
0.37973199970129623004
0.38362450082247306904
-0.16237952692180457337
-0.14844594586763923405
-0.20754375620938941838
-0.11929959711387994048
-0.18028868812195014693
-0.13387277149075960114
-0.24127777913002038113
-0.19486186249882980759
-0.30014922652516629054
-0.25395967284057996416
0.53371282230261851698
0.56230049954122041100
0.59065573584244790428
0.61543914077006234287
0.64377089491902039775
0.58885807907950660223
0.69747220548228172632
0.64406397066236475979
0.67062155020065106203
0.61721331538073420653
0.44601087456103727380
0.54587756950510613052
0.53783953594336275650
0.49613241796473045442
0.52952804489736560178
0.48771799253966952037
0.02068089116869015198
0.06364177410044172256
0.06276991779735159593
0.14949207263645231114
0.14827778547354938943
0.10639570793854061237
0.14715812838191649758
0.10496402308963403982
0.14771795692773292963
0.10552385163545049962
-0.54195227599443984712
-0.49251961315210313064
-0.52254536021174113891
-0.39041409833341944591
-0.42180752274652660860
-0.44215069441949583773
-0.48195144373663789672
-0.50224840197418951782
-0.45187948324158222491
-0.47217644147913384600
0.10571720423524916255
0.06427628008858182751
0.06352309894296670478
0.02228421849009044192
0.02189980968000419109
0.02114662853438907530
0.59104666287805063263
0.57218220109951289931
0.62817772268925164969
0.55342120767611102661
0.66282496408576663249
0.60941672926584977699
-0.86489489092936322479
-0.86931538906990801774
-0.90076131378803037109
-0.87693484716719771743
-0.90788919113271138173
-0.87312511811855286759
-0.93884353509822493500
-0.90407946208406642086
-0.96942176754911246750
-0.93552538680218877420
-0.13675171199451727211
-0.09723145969236221542
-0.09719031601306461765
-0.01888990009818579049
-0.01807195708797063732
-0.05767228022981521485
-0.01645888736998840640
-0.05682460169152651203
-0.01726542222897952186
-0.05763113655051763096
-0.74639209516500448771
-0.79176027346933119944
-0.78700712425705221520
-0.83434756031826440292
-0.83053783126961966410
-0.82578468205734056884
0.32934406715739500404
0.32628463954724568064
0.28377951703129655758
0.32318927779253425747
0.28026917122596528564
0.32473695866988994130
0.23734906465939625830
0.28181685210332096947
0.19402771222937575946
0.23931172958737181866
-0.57809261979683057575
-0.53848033760286839744
-0.59500923146909900918
-0.55877729584042001854
-0.64801657416488833707
-0.61432455542550956640
-0.15178998607646498886
-0.18428037503905003724
-0.21277907708453519531
-0.25052693470607917403
-0.27883434824769126603
-0.21740365487256460564
-0.30714176178930330252
-0.24571106841417666988
-0.33308121785480776511
-0.27420977045966182795
-0.12281813094035193279
-0.04168145186012860159
-0.06690401635026879679
-0.08204716618166671416
-0.09310180673207436863
-0.10767498110895401542
-0.31017207115774420023
-0.36981720760940922643
-0.33847948469935629223
-0.42588432567302358933
-0.39581236517796791752
-0.36447464226791492781
0.76972164747042726152
0.72553536577184729595
0.74667805040019064045
0.68134908407326721935
0.70249176870161056385
0.72363445332995390835
0.63422823534718575367
0.65693267814680478267
0.69945810471697211774
0.67807536277514812717
0.19281342506647280999
0.27940699306416083569
0.23562470833578744167
0.23648688649759186386
0.19139141835885198351
0.19195124690466841555
0.75229321196824749940
0.73486477646606784830
0.70810693026966753383
0.71616849097417478731
0.68931783569254412303
0.66255998949614380855
0.51559707629328654921
0.50997759873520454033
0.46851905168512630873
0.50232274335313731317
0.46020394290042943020
0.50615017104417092675
0.41808514244772160273
0.46403137059146304377
0.37524431860763296509
0.42257282354138486768
0.59057239334180722246
0.62722918361676494037
0.58253435978006384843
0.69789483219203263253
0.65460128857305110994
0.66256200790439878645
0.61130774495406958735
0.61926846428541726386
0.56626214940271912823
0.57457364044871617192
0.13686958353601350047
0.09736730023529377442
0.13922195115998106663
0.05786501693457403450
0.09971966785926134058
0.14157431878394863278
0.01907858691308654542
0.06107064851157793101
0.14436622358293255131
0.10292529943626523015
0.62770345315300835054
0.69815103641170150883
0.69882986734112129135
0.66350379501518652603
0.69836234976657696194
0.66302952547894311586
0.45766638875076998128
0.41301003414840264938
0.41554758829806215381
0.36809965597046845343
0.36964733684782413725
0.37218489099748364168
0.02224256319100489931
0.02143602833201378385
0.06094401375199820503
0.01989652992330169859
0.09890679864400585275
0.05940451534328611977
-0.90827313594318204171
-0.93961142471916636598
-0.93922747990869570600
-1.00000000000000000000
-1.00000000000000000000
-0.96980571235958312748
-1.00000000000000000000
-0.96980571235958312748
-1.00000000000000000000
-0.96942176754911246750
-0.50976627706375343685
-0.53758111039086886596
-0.56629517092998393757
-0.58930767870804656727
-0.61798851846952151945
-0.56344439454945771661
-0.64666935823099647163
-0.59212523431093266879
-0.67384663754583706829
-0.62083929485004774040
-0.77092428703430238013
-0.79791425247417957500
-0.75405695452215293351
-0.82490421791405676988
-0.78104691996203001736
-0.73718962201000337586
-0.85091953254062724366
-0.80833224569169392915
-0.71910676943534057592
-0.76447494773966728765
0.01132653742670068631
0.03911196222338977901
-0.01389602706343950889
0.09668707589588873552
0.04277546974947182140
0.06789951905963925727
-0.01113613639694509098
0.01398791291322234315
-0.06521786675541250966
-0.03902007637360694475
0.78957530773789663670
0.76653171066765990460
0.80942896800536590085
0.71954547676370983478
0.76380919742342945344
0.74372182537669173641
0.84700027009458256355
0.82821461904997417669
0.80540473375900600850
0.78661908271439773266
-0.72697832529368289212
-0.71011099278153344549
-0.68303236355306340410
-0.69192949012049997926
-0.63617002113055498569
-0.66485086089202993787
-0.08988543220881041462
-0.06047126730374089570
-0.12237582117139546301
0.00195462328597317304
-0.06192074071395108070
-0.02925832200888386220
-0.12579610471387533965
-0.09313368600880811421
-0.18816151970997724296
-0.15503823987646270233
0.18939221936444258776
0.23362550934137804592
0.23162631034696867793
0.32092739825545679722
0.31866551871837933696
0.27714511352708337544
0.31686470760873580721
0.27424550897785227033
0.31776511316355759984
0.27514591453267400745
0.56116066398808439608
0.60110477412480034509
0.55554118643000238720
0.67954984682567698417
0.63546186513512581406
0.64032731047523872014
0.59137388344457464395
0.59623932878468743901
0.54684831339885597856
0.55067574108988959214
0.68393211372809248338
0.64470957737765410833
0.68831438063050798259
0.60620625953943496622
0.69310460641127025205
0.64981106279228884048
0.79672932953238273512
0.82373701159433820873
0.77930089403020308403
0.87581008698795037581
0.83264990453497689238
0.84977354929114423676
0.78948972208200329792
0.80661336683817075333
0.74348096378214245661
0.76217724927403551760
0.18244641212492254678
0.18479877974889011294
0.22802324071383159310
0.18660031456545866924
0.27244397416128368627
0.22982477553040014939
0.05002798798769399202
0.12702695754143866758
0.11718433154686383468
0.08906417264943101986
0.10693570372137628510
0.07814814688512680685
-0.28207249675391926624