VARIABLES = "X", "Y", "P", "U", "V", "divergence", "vorticity"
ZONE NODES=7045, ELEMENTS=13692, DATAPACKING=BLOCK,
VARLOCATION=([6]=CELLCENTERED), ZONETYPE=FETRIANGLE
-1.00000000000000000000
-0.96138428703002642983
-1.00000000000000000000
-0.92276857406005285966
-0.96138428703002642983
-1.00000000000000000000
-0.94079688223321622509
-0.88159376446643245018
-0.90218116926324265492
-0.91473782505198575343
-0.90670707604391853618
-0.95335353802195932360
-0.87602295896712067957
-0.85543555417031047483
-0.82927734387418861051
-0.86799220995905357334
-0.95335353802195932360
-1.00000000000000000000
-1.00000000000000000000
-0.82455134143311492601
-0.76750891839979740183
-0.79839313113699295066
-0.84838804123064748275
-0.80967317514578251991
-0.79006900641737642932
-0.90531623574477215755
-0.90392539544562566789
-0.95196269772281283394
-0.84699720093150099309
-0.74182705922426772638
-0.71614520004873793990
-0.77271127196146327520
-0.75310710323305718461
-0.95196269772281283394
-1.00000000000000000000
-1.00000000000000000000
-0.71291921547572223439
-0.65832951255164717796
-0.68723735630019255893
-0.81574268102052194251
-0.85983403823307380520
-0.80290584371894913041
-0.72462150254950796757
-0.68765959936518883389
-0.65917399868163961685
-0.91171996140438660294
-0.95585998070219324596
-0.90782267842500607991
-0.86373132121245421722
-0.76306885691311998610
-0.75023201961154728501
-0.71039503280571802968
-0.68478451574367882326
-0.66078904530112170246
-0.63188120155257632149
-0.60543289055350546501
-0.63230344461757259644
-1.00000000000000000000
-1.00000000000000000000
-0.95585998070219324596
-0.82812896432798877022
-0.86992446286618774209
-0.82193582267425535637
-0.58080675355017175043
-0.60725506454924271793
-0.55618061654683814687
-0.78230038425771186716
-0.72962656015030979972
-0.74885808749490168079
-0.62618750357495289727
-0.59320100846826606666
-0.65179802063699199266
-0.78849352591144517000
-0.57850528959629943238
-0.55157768863909339974
-0.60537584366036645278
-0.95908127848872937182
-0.91494125919092272881
-0.91816255697745874365
-0.87314576065272375693
-0.57238934855367973320
-0.53148888224624024623
-0.50679714794564245661
-0.55611501924957396081
-0.68471334656195625978
-0.65903166031819448989
-0.70394487390654814085
-0.62611633439323033379
-0.52918741829236792817
-0.73837175122762310764
-0.72788541496034442346
-0.77800718964416659684
-0.95908127848872937182
-1.00000000000000000000
-1.00000000000000000000
-0.87682453788555037022
-0.83180774156081538351
-0.83548651879364210782
-0.69345853763926945668
-0.50972653027889780475
-0.46327244401095740711
-0.48503479597829990411
-0.78168596687699332115
-0.52567936633508738353
-0.49978104403108142284
-0.54649102624967371700
-0.48353990019141407375
-0.46028265243718569089
-0.50593017053813960082
-0.61071245462132139892
-0.57779712869635724282
-0.56239324892444841897
-0.96174438739509970908
-0.92082566588382896988
-0.92348877479019930714
-0.48003184823413358462
-0.87948764679192070748
-0.66844137376985335308
-0.63401449644877838629
-0.60899733257936217168
-0.55718222135182116084
-0.51047223913322881117
-0.52116343423537614399
-0.54177834157991222597
-0.46334568159990074943
-0.44158332963255825243
-0.41989421525415909775
-0.44008843384567242207
-0.74847197732103909473
-0.79197924805734065679
-0.73817869614069175910
-0.58569529075190529532
-1.00000000000000000000
-1.00000000000000000000
-0.96174438739509970908
-0.64425714398267297511
-0.68607127947150869929
-0.62662723828101762891
-0.84417766257124593476
-0.88383321868072262095
-0.83983209068244402129
-0.43849287859377072962
-0.41670310475035582387
-0.45824207439071862336
-0.69636456065185603492
-0.79632481994614257026
-0.39991837700816706969
-0.42160749138656622437
-0.37994253876217504162
-0.49448732353080426805
-0.48379612842865687972
-0.46781121282623233659
-0.55652350687236107341
-0.53322146504490430807
-0.50404968116536008615
-0.39986799417282126168
-0.37984177309148348112
-0.42006221276433458600
-0.50231530159180737272
-0.48346716894823865696
-0.52293020893634356572
-0.44225715878829408023
-0.39827243892091968025
-0.96337244637872199160
-0.92511683377382158966
-0.92674489275744398320
-0.88546127766434490347
-0.59462041159954215352
-0.57699050589788669630
-0.54498367921641122091
-0.49375842505679934380
-0.47563919088723549677
-0.64829421814085574916
-0.65233129229903841217
-0.70040163481003880896
-0.52451668019088559802
-0.75204773497652266379
-0.79811269877388424376
-0.75025985614878087926
-0.36127263869666659257
-0.34260273863115808801
-0.38124847694265862064
-0.36122225586132078456
-0.70218951363778048247
-0.44360387980381427164
-0.41804982576587601528
-0.41939654678139620669
-0.96337244637872199160
-1.00000000000000000000
-1.00000000000000000000
-0.37876107859137941869
-0.36033041276194327507
-0.34081905243240306902
-0.45143185786481743182
-0.55423128016930378603
-0.59924421207598843608
-0.54960747969285750347
-0.84431353318416269005
-0.84444940379707955636
-0.88559714827726176978
-0.60328128623417109910
-0.79824856938680111007
-0.46515236594302505901
-0.45486110983446437217
-0.42625505072069003187
-0.46944452061615454808
-0.50721409991628285674
-0.48674710089075734487
-0.34251531836888959859
-0.30508809797560410004
-0.32384541830338109403
-0.38881845435823164658
-0.38747173334271145517
-0.35824036193506708647
-0.34952970718373510550
-0.42282579875104309153
-0.32597096166552907981
-0.30933918469990012712
-0.34459047889569183187
-0.32507911856615157031
-0.64617667448827131871
-0.64002205667750433626
-0.69603489582701350002
-0.92588733728494565511
-0.96294366864247282756
-0.92631611502119481916
-0.46183288194839478003
-0.42293556672605980840
-0.41961608273142952941
-0.88516837054101260573
-0.44453030167379203874
-0.51169061603574994557
-0.50706681555930366301
-0.46914995190219610510
-0.59810666843520321478
-0.54905666237033590171
-0.54388204457136801739
-0.46929723625917529883
-0.73756031287543377672
-0.79100485833625666654
-0.74480402392597822026
-0.59195205062443623234
-0.36445874449764631420
-0.39535689760916814528
-0.39192764563952126045
-0.30757544070762959931
-0.28881812037985260533
-0.27254814278410111061
-0.68879118477646905649
-0.36134955321635670034
-0.29094366374200064662
-0.32036601740163916929
-0.29991298237087521406
-0.32907667215297115026
-0.28752398915524263190
-0.31417152079382282270
-0.29843158692757137951
-1.00000000000000000000
-1.00000000000000000000
-0.96294366864247282756
-0.83408876349461114064
-0.87998805038977834236
-0.83926908364584540401
-0.46382069028655187326
-0.45849142867090764142
-0.50636135442010576924
-0.50118673662113777389
-0.29371848576305892298
-0.39052620696072015694
-0.39384569095535038041
-0.36143633119001078446
-0.78582453818502240317
-0.43602739273764312689
-0.41111317379528067306
-0.40261026485913176121
-0.43588010838066393315
-0.36294753784382854933
-0.25470703998768878806
-0.27097701758344028278
-0.23686593719127649327
-0.53415371681686818484
-0.52442538906236846330
-0.58222372286993639978
-0.33336739060781017674
-0.30849441928055326700
-0.33647658188909979060
-0.67525887695230601970
-0.62648974885334141049
-0.61295744102917837370
-0.30420370082571424053
-0.25731028926521481992
-0.24207243574632850147
-0.27570581022311430042
-0.26479821245078555281
-0.96068760393621077665
-0.92363127257868360420
-0.92137520787242155329
-0.87773198568351640247
-0.56869141504577336299
-0.34816568532376251932
-0.38389088402759602436
-0.35480100825688665189
-0.42893280821078338949
-0.38871566451937072939
-0.42360354659513921316
-0.37538797509144716802
-0.39566296468925121754
-0.49442503574861929039
-0.45172972779838904689
-0.44496802692587050787
-0.70047633137596165831
-0.76728254743528645498
-0.71901832212569771752
-0.26830108030351690340
-0.24907817145179120266
-0.27449557691133319448
-0.48469670799411945783
-0.33618065729189261504
-0.30790257008613897138
-0.33466945063807485017
-0.65671688620257007152
-0.22192785444941176554
-0.20698977170754706556
-0.23976895724582408809
-0.30819849468334614695
-0.22453110372693779739
-0.24557530359905985207
-0.27853876138382061001
-0.25716454039676600596
-0.28282947983865963648
-0.96068760393621077665
-1.00000000000000000000
-1.00000000000000000000
-0.82826489790119661727
-0.82244103230778198288
-0.87190812009010176808
-0.25312135592427859043
-0.41865944970169477468
-0.38377156762592634642
-0.37882747073248196346
-0.76145868184187182059
-0.41189774882917623566
-0.32995948556942222840
-0.29848263994883372785
-0.32332416263629815134
-0.55883347417902229370
-0.51456744819561728299
-0.50470950732886621370
-0.34057201235056172584
-0.33297833937736093235
-0.36779430211824637453
-0.36084700194836583087
-0.30319260501748634962
-0.44003366985462977201
-0.43509931278338898064
-0.47976235092287872197
-0.20518148308211536790
-0.17349702897295427029
-0.19024340034025066792
-0.59477790947387454423
-0.57659837791857071476
-0.63853735464726613102
-0.25872335188271006201
-0.28331296098442448894
-0.28360888558163166451
-0.25794394613973803398
-0.22045704281841294048
-0.19884164989049740724
-0.22395991067114429107
-0.46990441005612759717
-0.19208686179159834007
-0.17718395187564961457
-0.20962819381098907190
-0.54065394262371846423
-0.91644390469968073365
-0.95822195234984031131
-0.91890955628605119898
-0.86944246850373141378
-0.28616777267050280686
-0.31716672899713266309
-0.29232520630966829511
-0.35122312804408806208
-0.35616722493753250056
-0.32361878535569421622
-0.30957305602393186961
-0.22963173713624474015
-0.21018530282069824988
-0.23367492160873212792
-0.18801280088307351090
-0.32829856236652754653
-0.37661359609516559255
-0.41079081151051805021
-0.37772053341382377800
-0.70264919958156513147
-0.70482206778716860462
-0.76363155004747529375
-0.40585645443927731435
-0.28042694483614416523
-0.25295131958614930356
-0.27571697976749154346
-0.20451347635559782856
-0.58101739685627040721
-0.58543641579397021069
-0.64295637358496593450
-0.25583733573442968279
-0.17633412348132163072
-0.15958775211402523309
-0.14567847525509619588
-0.16143121356537290523
-0.23517251477023154438
-0.21318048914369711055
-0.23595192051320357240
-0.64512924179056940766
-0.43158212536021178796
-0.46814581634453900083
-0.43334071907180038430
-0.95822195234984031131
-1.00000000000000000000
-1.00000000000000000000
-0.21168289598219769410
-0.53556558105245866130
-0.49962114575760641078
-0.49453278418634666336
-0.81616940033181362146
-0.86630665251574723307
-0.81930521631979780217
-0.32669193624541159604
-0.35275970348894680750
-0.32515536080055290613
-0.27159676488438599939
-0.24471088981993821543
-0.26543933124522051115
-0.76049573405949111304
-0.35165276617028862205
-0.30521135342108962618
-0.28180607006766056344
-0.27744436746481826450
-0.30053157641025624036
-0.24883110470304375950
-0.17445091239743665268
-0.16362206339001278410
-0.15006017490437592588
-0.46305745477327919790
-0.53998459999015846478
-0.40751731460183376887
-0.37827445625772204707
-0.37993531642027855710
-0.18775705472886111691
-0.18208522826376072334
-0.16532880663702401169
-0.40575872089024517253
-0.12973489291596271289
-0.14364416977489175009
-0.11379131057682922989
-0.20995872942064852662
-0.23145502450339891509
-0.23434104065167929432
-0.21156960928217283247
-0.13503014934934309821
-0.12438182344359001441
-0.15078288765961980755
-0.95682573112216640077
-0.91504768347200671208
-0.91365146224433280153
-0.15769449077069996878
-0.86491043128807321150
-0.19306185102181971924
-0.19156425786032030278
-0.17294321289994235569
-0.58639541267952566272
-0.58735440956508100374
-0.64608823867612485969
-0.13722099917398297708
-0.26228308986388360058
-0.24155464843860130486
-0.23839840705726436654
-0.25792138726104130164
-0.30200211899602735777
-0.30046554355116866786
-0.27731230174664311949
-0.27737833460573069200
-0.70055062656734712334
-0.75836001344958037240
-0.70268634717725786398
-0.16913600976848319757
-0.35699646704580056955
-0.33203563712092359905
-0.33737933799643560207
-0.47957949434741309336
-0.53250795507069170753
-0.48705613926687985060
-0.35865732720835707958
-0.20606046702345412469
-0.22538567842169615618
-0.22950589330480170025
-0.46450814835838127870
-0.43303281894531381324
-0.43448351253041583853
-0.64395251806621400803
-0.20800959822205133953
-0.09815316143902180768
-0.08251501230121438546
-0.11409674377815529067
-0.38769121808912149207
-0.40963667172466666777
-0.38381326725469999683
-0.53346695195624704855
-0.10344841787240219300
-0.18941073242079375927
-0.16564097569789038022
-0.18779985255926945342
-0.16929209429891636796
-0.95682573112216640077
-1.00000000000000000000
-1.00000000000000000000
-0.80511191330321008053
-0.85938168777377144103
-0.81064065681751185100
-0.13614344321101495838
-0.12222671151765396313
-0.14377775907733897354
-0.45703150343891446594
-0.41108736530976863754
-0.75283126993527860193
-0.11221609850337822822
-0.13113813670387708399
-0.11829896097348412132
-0.22430989107603346855
-0.20390889233212872167
-0.22115364969469653023
-0.30080099903359774904
-0.31374646763950464479
-0.28905665039012040651
-0.23835562268491500282
-0.23831283831256563910
-0.25787860288869196568
-0.31909016851501670331
-0.25781257002960439317
-0.20498467967779143706
-0.14916837359396661888
-0.13300794055090919832
-0.15297557672542577700
-0.34215145425137899471
-0.34692357050632238735
-0.36342944346330047223
-0.11722140501051608874
-0.36730739429772196747
-0.18729086944893125199
-0.18924000064752843908
-0.16852127187440835154
-0.08489400098127034000
-0.05599669138571145011
-0.06925585184346291778
-0.58858114530009386645
-0.64456588593372043938
-0.58796777743258743509
-0.12761732603428158073
-0.16708112378614936588
-0.08163753765022468967
-0.08076006299923498000
-0.10257094322141249720
-0.54033301158080437876
-0.48644555397197042357
-0.49331161359652780929
-0.95871358079269031194
-0.91553931191485671270
-0.91742716158538062388
-0.09648808075130660411
-0.86126953744429535220
-0.15648202486727613714
-0.14002083683460991859
-0.15283090626625014941
-0.42004279414504358536
-0.40560207575967133220
-0.44259078505354221278
-0.13651438869275955845
-0.39664664692439643989
-0.68389357568221431638
-0.74450274449271214294
-0.69222210112478066435
-0.22121362740032790573
-0.20396887003776009717
-0.20402884774339144491
-0.54094637944831081011
-0.22117084302797854201
-0.28515102461048791316
-0.27340667596701057063
-0.26950105018737802176
-0.24215315186642874523
-0.24599346542029185136
-0.26165288358346749931
-0.30956605776729140267
-0.31833111650098511181
-0.32785522724871035694
-0.63623736049115409141
-0.17051007426741793260
-0.18720948329977332714
-0.18828527064543604252
-0.33262734350365374958
-0.16951567307091314207
-0.09773454051763702521
-0.08325298253189580833
-0.10273984702477488573
-0.25774725780383495044
-0.35743158817312281617
-0.37256140313112218188
-0.35217757933972260176
-0.03912573617097857975
-0.02225478095624570940
-0.05238489662873004743
-0.42298944347648420594
-0.45815052853650600762
-0.45128446891194862189
-0.13267629614500320301
-0.15059878400970577728
-0.14915863592144679162
-0.41429575961807774132
-0.05975482065486963784
-0.03699462900852489022
-0.05887734600387993511
-0.10513473924111332858
-0.08804276696457270790
-0.11052535375774094617
-0.08200652276556538722
-0.38151683196639707418
-1.00000000000000000000
-1.00000000000000000000
-0.95871358079269031194
-0.13083731471109039113
-0.12165379258757084979
-0.14364738414273062195
-0.83210895700368658900
-0.87476805929453360644
-0.81861043515344833477
-0.02962470498238529981
-0.71907622972534057659
-0.76209407151427532856
-0.70148490270377750200
-0.08564787474823426505
-0.19091024265733252951
-0.17791159298253633736
-0.19097022036296390501
-0.10654089964072638308
-0.12328086823766815083
-0.11977442009581779070
-0.12716504436628703334
-0.29782223980861988188
-0.28217226538550999049
-0.29484348058364201473
-0.17421083362497713498
-0.22550838277080231808
-0.20836638748621522099
-0.21270392722903896932
-0.49753570119100970492
-0.54305842324555175793
-0.49542365739376875711
-0.30658729854231359102
-0.22934869632466542422
-0.77559259336451358280
-0.64161572278491751931
-0.59395950759385729434
-0.59933786988762072223
-0.31988507966617130140
-0.32143904283135754651
-0.33418130666883993918
-0.09729183330264953855
-0.15307838112952443232
-0.13763549038464048535
-0.15407278232602922285
-0.33943531550224015358
-0.01100529528218667855
-0.02787625049691954890
0.00024419039187235155
-0.13515589326482185806
-0.06229067406369585835
-0.04382128512815672977
-0.06353713383002626558
-0.11409734611414862337
-0.04040795706834081347
-0.45954561768367752084
-0.42438453262365571916
-0.42577962177082717687
-0.24513778188683116310
-0.24428209835337047484
-0.25689157427037423442
-0.39180138148311882684
-0.36771613768984456883
-0.37800068720656637700
-0.40049506534152529147
-0.54843678553931518582
-0.65920704980648059390
-0.96186917487026479812
-0.92058275566295511005
-0.92373834974052959623
-0.87792365337210809262
-0.46165766148091846865
-0.30814126170749978062
-0.17656681657530742813
-0.19029783215934942264
-0.17723920477892188274
-0.06587380865867864532
-0.04849463478546149620
-0.06826870087501710205
-0.22849301279120470820
-0.19463537190217319872
-0.00623085134986638405
0.00979307825651294130
-0.01360077537600597533
-0.27076270560253368203
-0.27202436101768939780
-0.28343392080066570626
-0.15778571318524886591
-0.14506135210307977146
-0.16148647254280806829
-0.09942008388750167569
-0.11604819001625243935
-0.11053693823753626968
-0.14134842124386012840
-0.04615795995680911645
-0.25815322968552995020
-0.34151250184199166693
-0.32351622917110900435
-0.32559341551086051769
-0.07947789505381223918
-0.07091302314305177046
-0.08872696139188906983
-0.74331738910695677180
-0.78771317305532173592
-0.73119680941614872971
-0.09695699278386751829
-0.08737308592700866738
-0.10451343925728975859
0.01521399454763376624
0.03018379870339518017
0.00396450887357473539
-0.11105859651046144643
-0.12434704344755095895
-0.12186744632773233166
-0.35356345015837831181
-0.34969531214363375193
-0.36384799967510006447
-0.38070434411984843681
-0.40324198294533780684
-0.40184689379816629362
0.01998843847995405987
-0.37935251566320737915
-0.01943030676512550597
-0.00186598452172612281
-0.02284363482494142575
-0.16081408433919358592
-0.62483127481050293461
-0.67195375226792175560
-0.61208457234906177291
-0.33764436382724716257
-0.10523934019898156800
-0.29647730216338230580
-0.29811112374312254136
-0.30977508328724001618
0.00396354686739340892
-0.09339658490725516460
-0.96186917487026479812
-1.00000000000000000000
-1.00000000000000000000
-0.50399065283831956386
-0.51044560448562936728
-0.55489173718662510026
-0.04770582630329382734
-0.04691701782112615848
-0.06747989239284943319
-0.88320751425775889665
-0.83739281788933750406
-0.84267667877498830808
-0.07914305453503021892
-0.21760087241749304088
-0.22249781760594711244
-0.23338995797965877976
-0.28506774238040599734
-0.05891502048208896447
-0.68407433195872990872
-0.46199029163731442083
-0.42611225192722312904
-0.42644488208361908121
-0.18189536314618268142
-0.18722390971705793472
-0.19996391847304845202
-0.79299703394097253994
-0.31185226962699152953
-0.02898564111055593195
-0.02664896628190354527
-0.00947664743565036424
-0.12394184279787892611
-0.11024819521111735299
-0.12765477365709856916
-0.56763843964806615094
-0.26279430705992790074
-0.24892317572776845314
-0.25356425310216640367
-0.11065339586078939971
-0.46844524328462422424
-0.15007362044759994801
-0.16332021851145367419
-0.14756748627533985974
0.02794249283636298514
0.05564079528085361798
0.04291229699212439908
-0.20486086366150252358
-0.00567131597868824385
-0.37519378550979326503
-0.40048670364031024871
-0.37794906481482082317
-0.35151356092856744784
-0.36475712406756688466
-0.35060443653610062764
-0.36610895252420794233
0.03266505514889008616
0.04286041537233120646
0.05553703204126722581
-0.23803103535405675806
-0.07767842182912754190
-0.06798375773124641641
-0.08370192080937405299
-0.40081933379670620088
-0.96240478897996739605
-0.92427396385023219416
-0.92480957795993468107
-0.16864876508232895524
-0.07972772477332946972
-0.09539316064189545807
-0.08957390433041556577
-0.06325994042672034023
-0.05560685771038891001
-0.07148997181869878870
-0.88374312836746149458
0.01631693890334614053
0.02214647029246567117
0.03449986232841840278
-0.32886003176948147564
-0.33212664802810243359
-0.34091098008586806500
-0.27559400844145176546
-0.27916365586521413311
-0.28863738980416830948
-0.03210656633370607971
-0.01571849788195066322
-0.03131775785153841085
-0.30034235878635778816
-0.31296788714860912517
-0.29922674126474013701
-0.63754538963118223549
-0.65025950445186153637
-0.69678844677940920960
-0.01259757265880051373
-0.26636395448369026839
-0.03743622638456674950
-0.05417462476380925651
-0.04217662210284645052
0.04501844718484281083
-0.09498795999222341135
-0.07385574125228794307
-0.79750420205248173655
-0.74782455721846596841
-0.75233172532997516502
-0.11446418808345026896
-0.12976277009326503409
-0.11235619164728380404
-0.13226890426552512237
-0.06179530772081766321
-0.57976016093975824006
-0.52256732577732156741
-0.53468904706901365653
-0.34182010447833494071
0.05619082450850527988
0.06891932279723449184
0.08219785031361537264
-0.04652154204747782629
0.03671322275679128611
0.01361828766057046093
0.01742361911753258219
0.06886744117744129923
-0.43619316828074872205
-0.47331938638318904466
-0.43131902518218390163
-0.35990726662304295402
-0.36266254592807051216
-0.34462074773629258750
-0.34806715433243001767
-0.70129561489091840620
-0.31923656115974125003
-0.31287970680862198236
-0.32250317741836220797
-0.28975300732578596064
-0.20781730600000000719
-0.21515756180297357369
-0.19752060785852898483
-0.30661103279748991302
0.03560654254260484097
-0.23116532330297356879
-0.23983282899999999738
-0.24669854105108318665
-0.59247427576043754094
-1.00000000000000000000
-1.00000000000000000000
-0.96240478897996739605
-0.16024652222379998090
-0.17041942400000001379
-0.17882166685852896038
-0.37154775715567445182
-0.39899631961964676652
-0.37337077133273388618
-0.83991190110102309507
-0.88236073953047888807
-0.84129428993800570158
-0.48544110767488118929
-0.01511131709953040386
-0.01450413631711014451
-0.03071057706911815149
-0.07942492179956071874
-0.09483655850533903586
-0.07957632328644509423
-0.02597018135083844700
-0.79612181321549913005
0.00171937771696227537
0.00484030294011242486
0.01915725331587521396
-0.22382506750000000229
-0.26563680800000000204
-0.27240023193260709533
-0.25960053055108323061
-0.40387046271821158694
-0.09694455494150550079
-0.05553596012673346627
-0.04308816252222051613
-0.06140794364777499292
-0.18911836500000001049
-0.32716622380989679453
-0.32220579959169115547
-0.33685968026012930165
-0.04089758176380426519
-0.05444066974752534427
-0.04825221973709659107
0.02793523803633325003
0.05367710523437829728
0.06419569009080269839
0.07285434814033818485
-0.12860776800000001119
-0.13934069422379996572
-0.12153597804172514008
-0.25273481850000001359
0.09690765800863967994
0.08362913049225879913
0.11161746570366398723
-0.33341327366399187149
0.09352897245387502279
0.10486009459413467293
0.08019856331770094937
-0.04033664695110839027
-0.03125133128819730655
-0.02506643619182786706
-0.14951359600000002636
-0.28186229443260707450
-0.28456093300000001589
-0.29245164589317890202
0.05478378544856473548
-0.33977902844365492907
-0.33493730915101727064
-0.35506554733040529559
-0.35324253315334586123
-0.66560463519089030360
-0.70896818026043273431
-0.65793206982137597549
-0.04199287214301239413
-0.96090913558580570708
-0.92331392456577299210
-0.92181827117161130314
-0.60842535188683455338
-0.55064012319541055795
-0.56659119932180757040
-0.88086508613631719911
-0.32218818195267062698
-0.31256471134293040137
-0.31224971587723887589
0.08885722136723642195
-0.30449739290431099281
-0.29822871889317892347
-0.29611507900000000326
-0.03298200897781606439
-0.27509887050000003672
-0.04385992827662199556
-0.06164242503809135715
-0.06179382652497573264
-0.45735751486640596752
-0.49602328096770981203
-0.44677534157357734479
-0.04347404539942125584
-0.31722775773446498793
0.01228592186873181044
-0.00110910722418916703
-0.00171628800660942639
0.01572158759230351394
-0.02191647641723856732
-0.01045043138351026482
-0.00639672644991038687
-0.78600999178652108945
-0.74221990390099712442
-0.73210808247201908383
-0.08144508049978035902
-0.08346523919999999930
-0.09896471364172512719
-0.29033800600000003733
-0.37448306763127409136
-0.40533811795601137895
-0.37301541239347424384
-0.61609791725634899251
-0.01573158132086912783
0.05752163149933586794
0.03833944240760554095
0.04711742712806357702
-0.10603650359999999830
-0.69885635883145469371
-0.31772653250198812369
-0.31324726541228514742
-0.32893400657428883971
-0.51197435709410676896
0.06109239928366309857
0.07916296197543654101
0.08547157581053491104
0.12441892706555282566
0.13722038842744166409
0.10970911937052851837
0.12104024151078816851
-0.32409228728165118127
-0.41592029124884000169
-0.30643985340431101339
-0.29999999999999998890
-0.30612485793861943240
-0.29805753950000002384
-0.00835004396769829620
-0.02571910324495940703
-0.02462381286575128156
-0.96090913558580570708
-1.00000000000000000000
-1.00000000000000000000
-0.34926944047753794020
-0.33096421647520934961
-0.32699112379940142858
0.07149660365493538949
-0.87754813585834012812
-0.83659495082304602409
-0.83327800054506895311
-0.01670824007976308076
0.09642287899139749541
0.11242575221829573251
0.11999140984245680597
-0.03616100409999999793
-0.05779296294978035486
-0.04001046618831100021
-0.35073709571533773222
-0.78269304150854401847
0.01366120825684997118
0.01503649464496813193
0.00026617916392899371
0.00431988409752887253
-0.30571719674279429491
-0.29918467760834976943
-0.31069523860002046245
-0.05981312164999999514
-0.02312956828679713778
-0.00317097405137376116
-0.02351545116399787749
0.03869489001577045700
0.02549040594225113199
0.02892607166582283548
0.04810826075755315900
0.10273149282649585157
-0.58794475518977551420
-0.60929831105774345801
-0.63745147312431682529
-0.00576050900953602868
-0.30889315366754321879
-0.29558050774339522659
-0.30441388657784018701
-0.00832415125482170032
0.00101070361613704064
0.00841813368218446816
-0.67070319676488132643
-0.49436006567086532293
-0.53047563249633644666
-0.47585879026863564523
0.14033399650129663172
0.16905052729892924845
0.15313545786318544240
-0.29738259267587252577
0.13389972645937697759
0.15007987337603045930
0.16293935832461928226
0.00003404485724308598
-0.30205500602590085180
-0.31849615758845906122
-0.30765113571909297185
0.14146538408353803717
-0.31452306491265114019
-0.38327159077568095924
-0.42031455282104346338
-0.37887732920347749754
-0.29805753950000002384
-0.29611507900000000326
-0.30418239743861941182
-0.95855149631007319222
-0.91946063189587889930
-0.91710299262014649546
-0.87519049658260772429
-0.55182918836430439047
-0.29764987830417488635
0.09640088373877132855
0.07696125761905359131
0.09093622977465312673
0.01207978200000000071
-0.01204061104999999861
-0.01589007313831099916
0.00445440397431311978
-0.78615209962863119575
-0.73556714059210626111
-0.73902619871219343839
-0.43881582822327314108
0.02591713684851922744
0.03954835182830664791
0.02729242323663738992
-0.32458467227416998302
-0.32217822074893853745
-0.34833064419010628665
0.01983644916230918598
0.02463640367965024350
0.00911983861486992745
0.03912162092203855246
0.12893990558370826971
0.10720574069712159038
0.12446565771308254478
0.01652726868091735496
-0.64102991666946551597
-0.68656899957074224439
-0.62516411386360448699
0.06306728395856592284
0.06861293641779597774
0.05365391321678321390
-0.35272490576230974835
-0.30179264993172072451
-0.29295927109727576410
-0.29033803445115630160
0.04206796315991170876
0.01944849455426897467
0.01685895959610670541
-0.69002805769082953269
-0.29619652023852860445
0.18204517253729737836
0.19503981777566550826
0.16613010310155357230
0.08250691007828364620
0.11267039466123979219
0.17898958805014239526
0.03995068730126997980
0.01580032166678584093
0.02418441049172722485
-0.28724030570352626635
-0.28904239063600356552
-0.27890010366365730610
-0.30836085707411720058
-0.29589279818736691219
-0.28973059034883302809
0.14242447722319398484
0.16389845146427522993
0.16485754460393114984
-1.00000000000000000000
-1.00000000000000000000
-0.95855149631007319222
-0.87198175202334060607
-0.83006925598580183490
-0.82686051142653482771
-0.30595440554888575502
0.05408064412305131630
-0.53615040262961088935
-0.57272435684367717368
-0.51525523415023810614
0.04100932523059084428
-0.78294335506936407754
-0.29033800600000003733
-0.28456093300000001589
-0.29187280530417492042
0.14689872509381970977
0.06000770810000000122
0.03604374504999999923
0.02841836702431312089
0.02932746989268072979
0.04158339848434998431
0.04361844514039332765
0.03412742441002178384
-0.46316156189426116452
-0.40761732444666898267
-0.43196305811765706162
-0.58859015964953820266
0.05103783562995585499
-0.28173051833182866099
0.03568887840822287244
0.04674135313679549791
0.02757974340948998390
-0.28144119659959887514
-0.28406243324571833764
-0.27254435874804150419
-0.35123329954560406074
-0.32068661453223284985
-0.31919500831552716225
0.04334602021903273539
-0.27572223120584937739
0.21167851537286022645
0.19868387013449209655
0.22831721297005494464
-0.28219219728494637778
-0.27404636011873639845
-0.28805068307231862512
-0.48405673037363394773
0.22137459223293509680
0.19215697527877717565
0.20820720500430028865
0.13611448536624154437
0.11625768455250642952
0.13252719547497490704
-0.28188847523378468551
0.10132829214891519998
0.10625570055905908529
0.08743431848842753151
-0.64526666705366153565
-0.64950341743785766635
-0.69426480807502555237
0.18212077683710681253
0.18116168369745089262
0.19938400907028250297
0.06628444065812756636
0.05291639624321710367
0.06744868853796176511
-0.95561571929054045516
-0.91416721560061375840
-0.91123143858108091031
-0.86904597500380786901
-0.28573596586885297022
-0.28174134138887291234
-0.30195978106890575265
-0.38811487855552417869
-0.36376914488453615526
-0.34426669899339135128
0.21037930065160881377