VARIABLES = "X", "Y", "P", "U", "V", "divergence", "vorticity"
ZONE NODES=7045, ELEMENTS=13692, DATAPACKING=BLOCK,
VARLOCATION=([6]=CELLCENTERED), ZONETYPE=FETRIANGLE
-1.00000000000000000000
-0.96735598307540582308
-1.00000000000000000000
-0.93471196615081164616
-0.96735598307540582308
-1.00000000000000000000
-0.94999999999999995559
-0.90000000000000002220
-0.91735598307540588969
-0.92717231719945192303
-0.91963266824809231093
-0.95981633412404621097
-0.89421586698840449525
-0.87685988391299862776
-0.85371976782599734435
-0.88667621803704488315
-0.95981633412404621097
-1.00000000000000000000
-1.00000000000000000000
-0.85000000000000008882
-0.80000000000000004441
-0.82685988391299869438
-0.86735011960933017239
-0.83439366939828274461
-0.81506757097056803385
-0.91670280922738900387
-0.91377295020668569681
-0.95688647510334279289
-0.86442026058862686533
-0.77617148984593820060
-0.75234297969187646782
-0.80303137375893696159
-0.78370527533122225083
-0.95688647510334279289
-1.00000000000000000000
-1.00000000000000000000
-0.75000000000000000000
-0.69999999999999995559
-0.72617148984593815619
-0.83090563867415323518
-0.87233929444041946599
-0.82298660482236063451
-0.75557832327118423787
-0.72421602763183845486
-0.69608907557180044190
-0.91633098630666698359
-0.95816549315333343628
-0.91505196825667634020
-0.87361831249041010938
-0.78419532114015655377
-0.77627628728836395311
-0.73748500360615987237
-0.71678703958898015713
-0.70030250956617678959
-0.67413101972023858899
-0.64826203944047722239
-0.67217555750613877663
-1.00000000000000000000
-1.00000000000000000000
-0.95816549315333343628
-0.83496559069613152104
-0.87564828850139919680
-0.83293561468514232260
-0.62413101972023854458
-0.64999999999999991118
-0.59999999999999997780
-0.79865628088806062124
-0.75194596335406393983
-0.76640692310196789627
-0.66258034445739821816
-0.62907161334299599442
-0.68327830847457793340
-0.80068625689904970866
-0.62035918059792882762
-0.59245632175538043285
-0.64427269866359049288
-0.95885262067554055676
-0.91701811382887399304
-0.91770524135108111352
-0.87633541602360631728
-0.61076396754918826915
-0.57380704067509702426
-0.54761408135019395971
-0.59793806039533559105
-0.71137309111795077321
-0.68526117862974167405
-0.72583405086585472965
-0.65716639598636883424
-0.57003520155278719628
-0.75411964129284925207
-0.74183235948373071889
-0.78839897508993117548
-0.95885262067554055676
-1.00000000000000000000
-1.00000000000000000000
-0.87656596499688910207
-0.83519613966941430583
-0.83542668864269697959
-0.71354676905673619647
-0.55000000000000004441
-0.50000000000000000000
-0.52380704067509697985
-0.78862952406321384924
-0.56461771442794150833
-0.53677910710050258380
-0.58292536022174923360
-0.52134369050450490857
-0.49507329965881591294
-0.54376481070709814514
-0.64053661835457353924
-0.61244183571120069942
-0.59581205807940540442
-0.95952595616787683674
-0.91837857684341739350
-0.91905191233575356247
-0.51592620337965922062
-0.87723930048922527103
-0.69022923603507857493
-0.66194364560808405251
-0.63862611258642631995
-0.59291067028606248002
-0.54676441716481583022
-0.55674972722912907663
-0.57628089265426729604
-0.49830779052896612136
-0.47450074985386914150
-0.44900149970773828301
-0.47203739968327707022
-0.75776077911560746347
-0.79659373387915222153
-0.74979656929966909118
-0.61721908533291580667
-1.00000000000000000000
-1.00000000000000000000
-0.95952595616787683674
-0.67235874654348648516
-0.70709555301360860202
-0.65549242956495645807
-0.84031588538851975656
-0.87968389886213671502
-0.83787128701560842359
-0.46950184547046458494
-0.44393039128211320143
-0.49035474919130789262
-0.71505976282954697432
-0.79903833225206355451
-0.42450074985386915261
-0.45000000000000001110
-0.40000000000000002220
-0.52904888069908717618
-0.51906357063477392977
-0.50134803416904516471
-0.59134688000900692550
-0.56993985275549641223
-0.54406764743158753106
-0.42420836547077039880
-0.39941523123380251459
-0.44724426544630924152
-0.53774010570635644157
-0.51873048418358391753
-0.55727127113149466098
-0.47263921272557918307
-0.42167281125795785801
-0.96025355188477390378
-0.91977950805265074052
-0.92050710376954791858
-0.88041149457903378206
-0.63135539618088742930
-0.61448907920235740221
-0.59035204581828837345
-0.53139906580758577981
-0.51003925917631454112
-0.68089153166674765139
-0.68942431679000870659
-0.72359254795280802952
-0.56720984662493800776
-0.76571762455478153964
-0.80301675497165070361
-0.76173920183519450156
-0.37572420369270909113
-0.35144840738541810454
-0.40022495354657816602
-0.37543181930961033732
-0.72757097067239517862
-0.47518740968762862575
-0.44647858824416264412
-0.44902678520621208680
-0.96025355188477390378
-1.00000000000000000000
-1.00000000000000000000
-0.39694461311216105992
-0.37468703308800571650
-0.34995883494220891841
-0.48387863469489800217
-0.61433628022222075415
-0.64334751338285367517
-0.60234416302025461931
-0.84141228321643146693
-0.84250868104434317729
-0.88150789240694549243
-0.65188029850611473037
-0.80411315279956241397
-0.50382017961328162681
-0.49115159798927987556
-0.46357271179497577807
-0.52666822331305218619
-0.55851013456567022430
-0.53536793537231985862
-0.34999999999999997780
-0.29999999999999998890
-0.32572420369270904672
-0.41193752026759528073
-0.40938932330554583805
-0.37484825532897847467
-0.36240354513559369654
-0.45629974850059396019
-0.32911914075887460651
-0.30678987413233110848
-0.35310255268306678378
-0.32837435453727004120
-0.69300044186840015215
-0.69657656694679170872
-0.73114709575078662418
-0.92071403648997840463
-0.96035701824498920232
-0.92061057012976310610
-0.50851120838468411023
-0.46826374056637820598
-0.47295476933778068940
-0.88161135876716079096
-0.49981149632541643779
-0.57940007776368740444
-0.56740796056172126960
-0.54446387530515405473
-0.65861137423097648735
-0.62106735594708251114
-0.62779843167194415710
-0.53556604930910312046
-0.76593565304631605617
-0.80422216704532956122
-0.76582663880054879790
-0.66218749930936793291
-0.39090562372085169152
-0.42723916775791370704
-0.41996620446353188916
-0.30250612503815932364
-0.27678192134545032133
-0.25356384269090059824
-0.73125610999655388245
-0.38287693952491508309
-0.28017685841161588112
-0.32387374749230501969
-0.29778866004240112098
-0.33631845768568979782
-0.27738758054094297956
-0.31367320774157592123
-0.29208872733663704402
-1.00000000000000000000
-1.00000000000000000000
-0.96035701824498920232
-0.84055897712305183145
-0.88063650680651517355
-0.84153382908369755988
-0.55217426039353545431
-0.55988464548191685388
-0.58711046285206880402
-0.59384153857693044998
-0.28758812029167202251
-0.43905246803861630589
-0.43436143926721382247
-0.40515016673945192238
-0.80324731508468394381
-0.50370392566625377118
-0.47684719867861802278
-0.48073962801945541168
-0.51260175166230470545
-0.39802789523015180695
-0.22678192134545033243
-0.25000000000000005551
-0.20000000000000009437
-0.63070864428250605904
-0.63361885689306807201
-0.66509771191992994588
-0.34630770196841520470
-0.31776714860785199024
-0.35433638616435181312
-0.73013909497253015601
-0.69545955192276798229
-0.69434253689874425586
-0.30777790432512652785
-0.23157720447330379376
-0.20959056625570698928
-0.25819022019401904888
-0.24348907339832498442
-0.96000076412049972774
-0.92035778236548893005
-0.92000152824099945548
-0.88028025268202569897
-0.66398069689590610842
-0.41729601685036432634
-0.44512539309407250787
-0.41122309179490812436
-0.51914391877673637943
-0.49382396224831870413
-0.52685430386511777900
-0.44901782243490984126
-0.48728179513388703015
-0.59926469306567564654
-0.56530779997066193943
-0.57073095445940713599
-0.75349390835377605402
-0.79702644273841394273
-0.75971478070004605510
-0.25060126670913396296
-0.22381495287732500188
-0.26080180645986306143
-0.60217490567623754849
-0.36318870669232916626
-0.33547178966380669651
-0.37031097820162928169
-0.72391822262626015494
-0.17705308465690655639
-0.15410616931381299066
-0.20383500600235679445
-0.32661946913582934338
-0.18184836778475998997
-0.21670275956651599558
-0.27098201138810285027
-0.24417536273380460732
-0.28097125567082831266
-0.96000076412049972774
-1.00000000000000000000
-1.00000000000000000000
-0.83974959688912775846
-0.83894021665520368547
-0.87947087244810151496
-0.23399515780556479072
-0.53335177540365963367
-0.50032143378686055879
-0.50681890532540241345
-0.79621706250448986975
-0.53877492989240471921
-0.37824747176149536854
-0.35134477678353881469
-0.38432039681695157052
-0.66354081447286383799
-0.63317897447002569056
-0.63273909204698330910
-0.42323898340841192844
-0.42918194996645947503
-0.45496078899295744336
-0.46150295610738911734
-0.34340828322367278336
-0.57368897170761190552
-0.57664698895581678606
-0.60513292292444242904
-0.15000000000000010547
-0.10000000000000010270
-0.12705308465690653974
-0.68738998117900607099
-0.68043742545926799714
-0.71696566690652208109
-0.26463933050988658335
-0.30005556008684663993
-0.29120323955886928680
-0.25440734662184560921
-0.17742951299400788745
-0.14526845973230881337
-0.18454170630481692150
-0.60469304050140004758
-0.13095699700356894235
-0.10780782469332489404
-0.15869919547451594166
-0.65658825875312565312
-0.91889036411707358809
-0.95944518205853679405
-0.91944594617903652178
-0.87891529038613858127
-0.36525196234778029014
-0.39127398959907233600
-0.35829836956565952466
-0.47421973222787905389
-0.46772226068933719922
-0.44162055913035569432
-0.39721695615711988259
-0.19711531377273944221
-0.17041567466815391030
-0.20729551870097925881
-0.12653814221281683983
-0.43540125454840761243
-0.51771399192817046941
-0.54422247319378880270
-0.51226644862678649694
-0.75764662932672288687
-0.76179935029966971971
-0.80036978347743670259
-0.54718049044199368325
-0.30991815212886775210
-0.28436451459392880770
-0.31785464568873378344
-0.15784206720023136183
-0.68478705502217518397
-0.68913668458508237080
-0.72131529646942915690
-0.27450192255190769552
-0.10430231164890416129
-0.07724922699199771037
-0.05449845398399531804
-0.08115313933866011298
-0.21824816403590879821
-0.19232096533801298910
-0.22848014792394977235
-0.72546801744237598975
-0.57854406906355770879
-0.60564158055527050895
-0.57759552900968724742
-0.95944518205853679405
-1.00000000000000000000
-1.00000000000000000000
-0.18136832000308344970
-0.65505186452553776366
-0.63120269781939541964
-0.62966630359180753018
-0.83704619427822990474
-0.87796827919765174641
-0.83799320546671673959
-0.45648219876150492036
-0.48165055204345363915
-0.44905137894593027958
-0.32670242134084787056
-0.30206006589815692642
-0.33365601412296863604
-0.79942277228894975671
-0.48709809534483772264
-0.40317963266067924355
-0.37121463885133965110
-0.37717731535489901207
-0.40939893724262732544
-0.29321229024604289481
-0.10530463260019787275
-0.08657431508070591308
-0.06534080546808693213
-0.60410518632768261948
-0.65940149408844495049
-0.55045215271297132098
-0.52098565419914821817
-0.52425731647012596692
-0.13348721287261341995
-0.12091360540469087148
-0.09655875107707294347
-0.55140069276684178234
-0.02724922699199771453
-0.05000000000000010686
-0.00000000000000011102
-0.21538894359099611253
-0.24987672909246244624
-0.24001413705044133406
-0.20385495446450455082
-0.03705254557508907282
-0.01960663716618283106
-0.06370723092975386082
-0.95824090102086922904
-0.91768608307940602309
-0.91648180204173856911
-0.08094977827257993086
-0.87676399815998418141
-0.15726958097825999294
-0.14631693564333045354
-0.12221819661850699679
-0.68994880891952403701
-0.69076093325396559219
-0.72628014177681765595
-0.04247372131713487986
-0.34063126517769592994
-0.30903531695288422032
-0.31601056800761151422
-0.34659394168125523539
-0.42159303707914774773
-0.41416221726357310695
-0.38670387539679051958
-0.38194059537584479358
-0.75914190804462611251
-0.79809405116142806413
-0.76047062917214791611
-0.10938847384778996319
-0.49400028090902636801
-0.46338438432569362124
-0.47028656988988232213
-0.61594376656626459443
-0.65254022557567348262
-0.62280503507903606231
-0.49727194318000411677
-0.23903636989629958864
-0.27054821789722827141
-0.26170044224511418429
-0.60407979890366059195
-0.57851868163953557023
-0.57849329421551354269
-0.72495142064929585235
-0.22721265674364785059
0.02685943157425156602
0.05371886314850324307
-0.00038979541774603749
-0.52736337819823475570
-0.55295372363089623224
-0.52581034733418041682
-0.65335234991011503780
0.01705611299116020774
-0.16550664102371559494
-0.13869231670941820078
-0.17704063015020715666
-0.13045525666396259878
-0.95824090102086922904
-1.00000000000000000000
-1.00000000000000000000
-0.82553799574004538275
-0.87100989889089197593
-0.83129209500913758824
-0.04454383780634310619
-0.02374687014459928025
-0.06015281061083611186
-0.59721853039088901305
-0.55292833620687420471
-0.79233995189233574763
-0.00088915964411339916
-0.03311498255610016705
-0.01024789840514811479
-0.28014772213180350047
-0.25823537836545001900
-0.28712297318653079437
-0.41580051472297652193
-0.43614135674224074890
-0.40125219505988352076
-0.32080962134634682936
-0.32560867468508208900
-0.35139299501999055053
-0.44304354230642939427
-0.35615627504093627653
-0.24863587413087478994
-0.07534607025250403267
-0.05413338942793510800
-0.08817579302322105239
-0.47211156822075672768
-0.47393656655163107772
-0.49909694151087852232
-0.01231801489435633938
-0.50064997237493291671
-0.20692080008519048162
-0.19509708693253874356
-0.17480523027408140235
0.04999999999999987788
0.09999999999999986677
0.07685943157425155492
-0.69137447085743242159
-0.72525818945102926705
-0.69106770205569900689
-0.03894012978626719412
-0.15674877349174981545
0.05477834937953298539
0.05583783561056272771
0.01811559922218995006
-0.65808228617958552942
-0.62067370283573497503
-0.62540363910520546664
-0.95839166958145605157
-0.91663257060232539164
-0.91678333916291221417
0.02747433798322466286
-0.87116066745147879846
-0.10239057831466216730
-0.08256296001081733782
-0.11062763836011776930
-0.55911742712386436338
-0.53974156003221507305
-0.57784266329923983374
-0.06834817471937622291
-0.53355246911522491438
-0.74676805781933885964
-0.78615302677969212120
-0.75295498293198248607
-0.29277532625630442453
-0.26388773143522364917
-0.26954008450499727934
-0.65838905498131894412
-0.29757437959503968417
-0.38815893714944560422
-0.37361061748635260304
-0.36051735957591468651
-0.32818882687925121644
-0.33076897907342039939
-0.35873642723510545949
-0.42462745750408414924
-0.43345440028519177655
-0.45187048508753702158
-0.71907126433838564061
-0.20107577684329450141
-0.22965557760437227408
-0.22005607336979704503
-0.45369548341841142713
-0.18794050355868796576
0.02315583437584838034
0.04720082839581016265
0.01172697912560544120
-0.34564316932466754295
-0.46868291178049742429
-0.49802314498936606224
-0.47130973916606422325
0.12993372260185936939
0.15986744520371889977
0.10679315417611107142
-0.55684562646536328590
-0.59112463278528437627
-0.58639469651581399567
-0.11287040809444590095
-0.14383781918426363777
-0.12578136240193205087
-0.54829359324878912396
0.09380749546728156529
0.13389612778605988752
0.09486698169831131455
0.00105446336239833904
0.02585579686939595834
-0.01413879627926957483
0.05151933200318644518
-0.50421223590635622092
-1.00000000000000000000
-1.00000000000000000000
-0.95839166958145605157
-0.07714329721234006176
-0.07172363441386279959
-0.10520797556164049325
-0.83903014606868298042
-0.87790674261579759730
-0.83228407090436418159
0.14688178649488939365
-0.76248101017846725558
-0.79400950295925631917
-0.75462453399890305761
0.03652831263260306049
-0.24087636074049634249
-0.22351734311554269374
-0.24652871381026997266
-0.02657338916414568944
-0.05456817458748151189
-0.04035338929604039698
-0.09229702125415434333
-0.40185610376241365227
-0.37421452618888273456
-0.38791169280185078261
-0.21229655997941859757
-0.30023714473018703330
-0.27220284964014462847
-0.27486561477529192210
-0.63068509928972837919
-0.66102978507358045590
-0.62804436919746686740
-0.41068304654352127958
-0.30281729692435616075
-0.80075557812357511800
-0.72061263729813873624
-0.69291584381718540619
-0.69445721677693850182
-0.42663730533798227551
-0.41982021039077271896
-0.44687838847120187058
-0.00035879614737486555
-0.15882505974887128897
-0.14284488922366120334
-0.17196033303347785237
-0.44425156108563507162
0.17993372260185946931
0.14999999999999993894
0.20000000000000001110
-0.12785764865905355214
0.08786759242721656205
0.11989734924387039638
0.08354908881984027258
-0.04914851178900424278
0.12689673851496513501
-0.59582912229313622632
-0.56155011597321513594
-0.56625460548106698599
-0.31888445077521432314
-0.30699992247700819137
-0.33375864102646146669
-0.51545364700575702077
-0.47992432287989816864
-0.49116573397929891298
-0.52400568022233107168
-0.66257115803333344051
-0.72846911347770282319
-0.95967959882599296328
-0.91807126840744912588
-0.91935919765198603759
-0.87919467186033450901
-0.59846985238539773810
-0.40386595159631177854
-0.22062460087525789798
-0.24508234269012757478
-0.22207097199540029586
0.07632840361382434158
0.10545597883183850663
0.06565588785061723942
-0.29093276862615002898
-0.24774510782527492392
0.18872905153340863160
0.21759065786309839119
0.17574339282457912548
-0.34811718359444532300
-0.33571700761297601501
-0.36181435020741337105
-0.18523304368324569613
-0.16939031052319689086
-0.19645382681936979230
-0.05644453969134462235
-0.08465747389289526859
-0.06408408705260371097
-0.15611759987342904710
0.11267666403785445151
-0.32135846504499210319
-0.43080440798111019340
-0.40637305728624784074
-0.39292590418172290700
0.03106290051618200779
0.03627000416296805724
0.00484830749941118390
-0.76847774645406008442
-0.80375394626137153242
-0.76547937831626367000
-0.01985699388036587382
-0.01314059859658605993
-0.04243211650522443062
0.22705452661083200261
0.25410905322166399412
0.20698824921269143307
-0.09293021446383584183
-0.11788755184374852258
-0.10290031127914087139
-0.45282513952380787359
-0.43696736726711837839
-0.46406655062320867344
-0.50298191471705255839
-0.53461826009905977219
-0.52991377059120792214
0.23584985554238119265
-0.49707382434817570793
0.16518271803702139211
0.19646930828798289670
0.15818332876592663960
-0.19500745569922739442
-0.70008867171716138156
-0.73128484094781431857
-0.69727294424704999720
-0.41494663572442064270
-0.07468737707759023903
-0.37544198665435080109
-0.36297228050685087508
-0.39139624544881179702
0.20702998307554065782
-0.03479256914396534200
-0.95967959882599296328
-1.00000000000000000000
-1.00000000000000000000
-0.63273254372767517850
-0.63477998816562208884
-0.66461860247128035084
0.10079444704118398213
0.09613291525052945763
0.06099435605996270798
-0.88033603017741590691
-0.84017150438576448934
-0.84131286270284588724
0.01156470278319099779
-0.26503877561101402138
-0.25521193644673612066
-0.28110592946187218377
-0.34934464405991344504
0.06620145970674876090
-0.73428320908561073299
-0.60115767251423712914
-0.56894242560990648805
-0.57163024573874599010
-0.21859355024609689044
-0.21656249961693591066
-0.24571405719611391638
-0.80489530457845304134
-0.37794909234428686329
0.14293790561597166655
0.15015859082198759755
0.18041983240010481260
-0.12472037386532985881
-0.10659585850699850040
-0.13799308451509770257
-0.66743432994139173520
-0.31068727765732417900
-0.29632873508934021167
-0.28565754770167228749
-0.09976303648541717806
-0.60320511695218403947
-0.17102386329069640958
-0.19582423208297716766
-0.17020708690694663634
0.25000000000000000000
0.29999999999999998890
0.27705452661083196375
-0.23588721803183601566
0.18844457034404385465
-0.51054744581463040731
-0.53840102564784864114
-0.50676468026584142734
-0.44316138977986779812
-0.46716356187958335555
-0.44006437852349311601
-0.47307165224846015050
0.25871791418421097308
0.27697711186349371904
0.29984517050532349947
-0.27043474207420420408
-0.00738715680225382563
-0.00163371500792159198
-0.02903912734963310857
-0.54108884577668825422
-0.95953535392770739065
-0.91921495275370035394
-0.91907070785541478131
-0.19379318145381616012
-0.04578335183406311709
-0.06935678314894948293
-0.05111394576270386625
0.03915749766104020813
0.04204499115911235207
0.01445219628126314521
-0.88019178527913033427
0.22918256013026516715
0.23974323491782290052
0.26189581197254740985
-0.39163370528607333032
-0.39034150639042380915
-0.41365443682877112153
-0.32331914675147904736
-0.31092128588998207972
-0.33694678319841647740
0.13435779569241720899
0.16325961255299589747
0.12969626390176267061
-0.33143628329376012553
-0.36218109373774154403
-0.34720428190030550031
-0.70123269870226823119
-0.70237672568737508083
-0.73542723607071758263
0.17183972247655035503
-0.29828941679582721136
0.09395999539768845610
0.06511499978032825320
0.09504645532410896380
0.28087049123893548241
-0.07618960517053080528
-0.02370853342099235594
-0.80344913517656912916
-0.76703157705217628326
-0.76558540765029248210
-0.12108169403861160363
-0.14523600228090424724
-0.11383877627280505895
-0.14605277866465399272
0.02020563807559537864
-0.66892700720052566954
-0.63627266542475602318
-0.63776534268388995752
-0.41675144808514580363
0.30091177225124832173
0.32385724564041629137
0.34771449128083259383
0.06800249327840041103
0.26564634351304988735
0.22303308795657733610
0.23105782590051637815
0.32377983089307804665
-0.57399396974968486251
-0.60438697895765347567
-0.57281210774421542631
-0.48091335084220676599
-0.47713058529341784153
-0.45127925586978312467
-0.44722032282482548915
-0.73398106666883378146
-0.36735759798544270760
-0.34178929178916250819
-0.36606539908979318643
-0.32117878459187110263
-0.20781730605288001312
-0.23151462124980806689
-0.21218990283490796189
-0.33661278754146128911
0.26377107774279862085
-0.24752238273389304268
-0.23983282902104999246
-0.26274518836136112609
-0.67007103418563251918
-1.00000000000000000000
-1.00000000000000000000
-0.95953535392770739065
-0.17072164365502170980
-0.17041942401934701001
-0.19349096181814146034
-0.51394576351820464577
-0.54278800462847531794
-0.51224660466641758205
-0.83660430079069525444
-0.87783750432305507339
-0.83895858174677062635
-0.60587965621678741002
0.15788827123446086409
0.15251692991592580295
0.12432492258322763723
-0.06767754430807275401
-0.08713670140753562721
-0.05673044807106793208
0.12323846265680712952
-0.80109485422049386827
0.19776991888211709059
0.20635002880567154815
0.23228022521123831146
-0.22382506753696501667
-0.26563680769596298425
-0.28827904679297255974
-0.27564717769881763587
-0.54396986663394475414
-0.09437961917334217188
0.00834588390128190860
0.01832548281048540853
-0.01372893451178885428
-0.18911836503611351157
-0.38915842418939983194
-0.38797534198837591024
-0.41556836588412182643
0.04633304757126410767
0.02234966628167125643
0.04418901936518822987
0.24896328436214409940
0.29628008839470254543
0.31525476766109056248
0.33066436481685762550
-0.12860776842091600769
-0.14981581585580622251
-0.12484473122976380566
-0.25273481835850647448
0.37385724564041633577
0.35000000000000003331
0.40000000000000007772
-0.41962729892907951745
0.36778312581397915038
0.38785176034712570692
0.34384846542622460319
0.06689748234319667364
0.09285498446248471871
0.09174997352728098132
-0.14951359622013149497
-0.29774110923706303966
-0.28456093258414399960
-0.30799860793895206257
0.29815535416495375642
-0.45475530317817985937
-0.45823135048657659407
-0.48438939815060350069
-0.48608855700239061992
-0.70124902068008709843
-0.73341721416518979026
-0.70181287318373108963
0.03232926519087475636
-0.95871374690137689534
-0.91824910082908428599
-0.91742749380275367965
-0.67182020916276719014
-0.63951451766102462848
-0.64126369263815929944
-0.87701589729672446705
-0.36554718410225017777
-0.34127107680161949954
-0.34075286181407649089
0.35925806258199166621
-0.31895218529026825305
-0.31377568104256703396
-0.29611507879137399790
0.06904151054927254449
-0.27509887014005351968
-0.01284580628966961076
-0.04026167529887118152
-0.02931457906186636306
-0.57417328484836360758
-0.60596931376612683806
-0.57408362729902417954
0.00273983826040789889
-0.36436410190122620056
0.21330996639836691253
0.18291344815714635774
0.18828478947568139112
0.22279509580480261199
0.12003323320009787190
0.14931170045921654532
0.14610647100250728769
-0.79024837164162486935
-0.75473892507142348318
-0.74389244249255448427
-0.07557139174150437344
-0.08346523917493600675
-0.10227346660677380519
-0.29033800568775902651
-0.51195632283007419527
-0.54297514628987952889
-0.51295104317413942052
-0.67125635665912319894
0.11892822226489413451
0.30421333603621392161
0.26824678062372608878
0.28492983977463193224
-0.10603650379792600722
-0.72257073158632079135
-0.39708206718824101689
-0.40618879238810617904
-0.42873402412894467961
-0.60771848874326139800
0.31015263360659173220
0.34266164425849554576
0.35465892370013352153
0.42243690265349465029
0.44487380530698922287
0.39629414829391090835
0.41636278282705746490
-0.43221007143734135880
-0.54306480383921895694
-0.32089464589458127630
-0.29999999999999998890
-0.32037643090703826765
-0.29805753939568702116
0.08231797550497861604
0.05032172915773201055
0.06432551153812135492
-0.95871374690137689534
-1.00000000000000000000
-1.00000000000000000000
-0.48598123070030913029
-0.45812402418449510444
-0.45801669788241361481
0.32943612986817372157
-0.87515402367671391026
-0.83474242717068469766
-0.83288055355067414087
0.08703397451612979174
0.37289072759537517099
0.40148442536050921170
0.41511709037389271648
-0.03616100407659700311
-0.05191927419233487856
-0.02450340518313330607
-0.48498651035624390504
-0.78838649802161431257
0.20822621233539656549
0.20314245827242619069
0.17782969409417598294
0.17462446463746672531
-0.33491300926986256048
-0.32907315672564868558
-0.35852424935701232567
-0.05981312162576650493
0.03046322258662904903
0.04260096236277269299
0.01487757803655154198
0.26757057534324502068
0.24044027087080596661
0.24992540027724166607
0.28589195568972947115
0.38488800703701309125
-0.64735957986183734203
-0.65345546708551538462
-0.67735224388280124153
0.06245946893387565452
-0.37220903218284906444
-0.35644272237732227415
-0.38131575738271422660
0.11640751602433818679
0.14358576476195133997
0.14106505852139539225
-0.69867395478903493444
-0.57878123144821236323
-0.61002246204318577583
-0.57647725814828798541
0.45000000000000017764
0.50000000000000022204
0.47243690265349469470
-0.34275793955148547987
0.43876198140006095194
0.46727300387999270992
0.48967220245299619696
0.11169151701318699721
-0.41039879904157849921
-0.43431507476407754664
-0.40829379571484236688
0.45239464641344445672
-0.43420774846199605701
-0.50152602585224603793
-0.53784965535030482275
-0.50674117434116006109
-0.29805753939568702116
-0.29611507879137399790
-0.31843397030272524439
-0.95820130546655923887
-0.91691505236793602318
-0.91640261093311836671
-0.87464158224189625379
-0.61611834926686381841
-0.31259411775851131399
0.37920393371247052006
0.34170863487434222083
0.36693142870630202079
0.01207978203282399944
-0.01204061102188650270
-0.00038301212842280566
0.02734037219779834535
-0.79170997671567144849
-0.74721592118661162019
-0.75053939988066886713
-0.54015362865022920058
0.23754218718699066093
0.26177440797561440933
0.23245843312402031389
-0.45430067394248579982
-0.45058465000255798483
-0.48127048641631609005
0.19920358117293249234
0.19526470407343879399
0.17068558753797302696
0.26467249165942974276
0.43433116989019987519
0.39449504679516667061
0.42472413013204629584
0.16816488129741707924
-0.66749880245548609548
-0.70569562247402028987
-0.66047713477050074005
0.31554855971851286656
0.32688378340081181150
0.29722717937202841609
-0.47605533792740201138
-0.38998632189074522447
-0.36511328688535327203
-0.37378385139338432541
0.09632066710264625131
0.06946081473270947215
0.08931932130381242674
-0.70901910116807753681
-0.39209132521748141231
0.52217274860198459319
0.54434549720396896433
0.49460965125547906585
0.35304385855664116578
0.40676755180133516987
0.51700884982848260840
0.14112954457048260126
0.11172376003773060171
0.14109730154593899676
-0.33277188985292849299
-0.31908710702709169871
-0.30910105732853471183
-0.43088707058806374750
-0.40707812116764618970
-0.40375744329371382468
0.45490841024820227734
0.49218596628775401758
0.49469973012251178268
-1.00000000000000000000
-1.00000000000000000000
-0.95820130546655923887
-0.87470022661887847359
-0.83293919792765636068
-0.83299784230463858048
-0.42717104664813587700
0.29432909568821308266
-0.58827853590458067945
-0.62086700149504803203
-0.58352988367639646583
0.11872510583656442629
-0.79176862109265377931
-0.29033800568775902651
-0.28456093258414399960
-0.30681704465489634259
0.46451545000635585669
0.06000770813281299659
0.03604374508281849715
0.05130433524779284826
0.22687719655052873691
0.25619317140212283235
0.25061193482863131088
0.22293831945103503855
-0.54644955059318944812
-0.50782194779520639649
-0.51411786973816664403
-0.62788866918003338746
0.07816418761772962742
-0.29683099495633935572
0.19307936617258594780
0.19089402827173310162
0.16597954339656423306
-0.35349807018211643062
-0.34482750567408537723
-0.33321228897084848031
-0.46859772671403870925
-0.44312703878919468270
-0.43566942757583138057
0.16601178642110786532
-0.32115667314969159607
0.57217274860198463760
0.55000000000000026645
0.60000000000000031086
-0.36851418004004998785
-0.36324450868671570580
-0.38682165386414713026
-0.55119820282137366174
0.58897206961193326880
0.53932213603246470512
0.56665878340795106105
0.45386665200813630650
0.41653529286030344103
0.44409891094916809084
-0.38350097599021476524
0.39087534106921945076
0.40254674842596838147
0.36471526591339009649
-0.67050744158126807104
-0.67351608070705004661
-0.71202774029385951238
0.52371229083851256192
0.52119852700375479682
0.55272485155451334116
0.30971446783235179190
0.28574443790398307286
0.31829912561658180170
-0.95773915006954313256
-0.91594045553610237143
-0.91547830013908626512
-0.87423807122186247831
-0.39855582728119787195
-0.39335421126868191921
-0.42196943063561997977
-0.47998218644894719009
-0.47368626450598683153
-0.44584650315972768064
0.57084846058322336049
-0.79286413090574092699
-0.75163490969375601480
-0.75273041950684316248