VARIABLES = "X", "Y", "P", "U", "V", "divergence", "vorticity"
ZONE NODES=7045, ELEMENTS=13692, DATAPACKING=BLOCK,
VARLOCATION=([6]=CELLCENTERED), ZONETYPE=FETRIANGLE
-1.00000000000000000000
-0.95837877445966734857
-1.00000000000000000000
-0.91675754891933469715
-0.95837877445966734857
-1.00000000000000000000
-0.93630081457852198934
-0.87260162915704397868
-0.89467958903818933791
-0.90748461663822466150
-0.89821168435711451483
-0.94910584217855720190
-0.86592579596778507245
-0.84384783608663971322
-0.81509404301623544775
-0.85665286368667503680
-0.94910584217855720190
-1.00000000000000000000
-1.00000000000000000000
-0.81044395479406028393
-0.74828628043107658918
-0.78169016172365601847
-0.83361063108459698690
-0.79205181041415750887
-0.76900957781207956998
-0.89504732370111117490
-0.89188296304510772394
-0.94594148152255386197
-0.83044627042859364696
-0.71973012430094229774
-0.69117396817080800631
-0.75313400559352172703
-0.73009177299144378814
-0.94594148152255386197
-1.00000000000000000000
-1.00000000000000000000
-0.68812942432005796967
-0.62797256820903923913
-0.65957326818992356721
-0.79014491564873012841
-0.84101393934691892618
-0.77957724673040484920
-0.69783832006983237406
-0.65892051524919659222
-0.62666706232758517814
-0.89567198240372336571
-0.94783599120186168285
-0.89377747272441554482
-0.84290844902622674706
-0.73378707672932430572
-0.72321940781099902651
-0.67742923780991848304
-0.65204815006875183059
-0.63004918039754786996
-0.59844848041666343086
-0.56892439262428762259
-0.59779572747593645587
-1.00000000000000000000
-1.00000000000000000000
-0.94783599120186168285
-0.79510017224498852340
-0.84538607732435600006
-0.79262254394685927039
-0.54124973409399745883
-0.57077382188637326710
-0.51357507556370729507
-0.75119788173382717744
-0.69484004281442135476
-0.71225084781892422647
-0.58942882946942209976
-0.55219059661125891036
-0.61480991721058875221
-0.75367551003195631942
-0.53882688329457695264
-0.50872937396486628270
-0.56769821814622578593
-0.94852498759092385150
-0.89636097879278553435
-0.89704997518184781402
-0.84607507371341816871
-0.53045998528806259653
-0.48553382295182045958
-0.45749257033993362409
-0.51320848148211062334
-0.64691733146014152034
-0.61640542511036466866
-0.66432813646464450308
-0.58429801086081178951
-0.48311097215239995339
-0.69636515307347734982
-0.68047945832803036215
-0.73778981528650944277
-0.94852498759092385150
-1.00000000000000000000
-1.00000000000000000000
-0.84525584689456478849
-0.79428094542613503215
-0.79346171860728165193
-0.64844244171919751540
-0.46002087580178779858
-0.40646667603986830208
-0.43197962318990096309
-0.73697058846765606255
-0.47948793832835945317
-0.45024650269185267915
-0.50121854965155576700
-0.43095918953903700199
-0.40442580873814037989
-0.45657759135150333130
-0.56533328033924179490
-0.53322586608968891575
-0.51426113556811892114
-0.94867805141210492792
-0.89720303900302877942
-0.89735610282420985584
-0.42733615571499650176
-0.84540891071574575388
-0.61940419831638937609
-0.58736718170755652935
-0.55832893830474827901
-0.51228143419418337157
-0.46130938723448022820
-0.47237227177710777726
-0.49331670367261337695
-0.40647537726012183956
-0.38096243011008923407
-0.35545818418031011054
-0.37994199645922521746
-0.69364278622181840817
-0.74355225241455003005
-0.68706112227492432964
-0.53629503693643365558
-1.00000000000000000000
-1.00000000000000000000
-0.94867805141210492792
-0.59077263067268093177
-0.63562604450035564696
-0.57455078448871454988
-0.79550614547698572654
-0.84643112415059773568
-0.79448393204213374474
-0.37924358729683671498
-0.35406136585553310558
-0.40215393427369289236
-0.64220770844724972548
-0.74457446584940201184
-0.33105663169312682381
-0.35656087762290594734
-0.30665507920594359259
-0.44265798789558108428
-0.43159510335295359074
-0.41294370401405444682
-0.50416634336338228550
-0.48213244199506760657
-0.45000374842201629200
-0.33188547627048103905
-0.30831276836065191205
-0.35636928854939614597
-0.45085571490693154839
-0.42933915803675537504
-0.47180014680243714809
-0.38350253493479380396
-0.33118706710809253657
-0.94854673651983234528
-0.89722478793193727320
-0.89709347303966480158
-0.84629980925832526406
-0.54206680349373159711
-0.52584495730976532624
-0.49336097631478231795
-0.43967145322938583352
-0.42114143102540491093
-0.59583002231882553623
-0.60088741396497002967
-0.64726510009339421892
-0.47168236236839933273
-0.69547604545599728265
-0.74549109546649150460
-0.69455941583890790092
-0.28388524971640549666
-0.26111542022686740072
-0.30828680220358872788
-0.28471409429375965638
-0.64818172971048371167
-0.38507239518600538952
-0.35563122610674469115
-0.35720108635795633223
-0.94854673651983234528
-1.00000000000000000000
-1.00000000000000000000
-0.30795363027132005573
-0.28507933152387948672
-0.26184589468710706139
-0.39327012219735585363
-0.50892324951575906855
-0.54984794009422000016
-0.50114211291527066550
-0.79430833169624004420
-0.79311051791549447287
-0.84510199547757958172
-0.55490533174036449360
-0.74429328168574593327
-0.40749572272955408847
-0.39716342753692362999
-0.36498769703709188494
-0.41701720504325473504
-0.45518909067901852650
-0.43351047673263554127
-0.26017267579249381271
-0.21369027237904397731
-0.23740284630295568902
-0.32077199317745114238
-0.31920213292623955681
-0.28434289999694595252
-0.27309439734202650696
-0.36109439169752410859
-0.24086832435825322740
-0.22062122848963905408
-0.26446699842514548306
-0.24123356158837305774
-0.59901730421220533707
-0.59714719445944075549
-0.64631161995771901907
-0.89488686798513628062
-0.94744343399256814031
-0.89599017051240048559
-0.40548305650036353676
-0.36297503080790133323
-0.36096236457871078152
-0.84399869295031537675
-0.38898978481098278603
-0.46620061343531360443
-0.45841947683482525688
-0.42347797735486819581
-0.55500317208817995240
-0.50902108986357452736
-0.50911893021138987514
-0.42024759119906146543
-0.68641627148893336052
-0.73976339470221397221
-0.69094615847246532159
-0.55313306233541537082
-0.29248696554632719335
-0.32873733129170956691
-0.32484402595214179055
-0.21689658209439777181
-0.19318400817048603235
-0.17267774396192811515
-0.64178173297418705801
-0.28841493277163654518
-0.19664948622578359849
-0.23667489372336825149
-0.21150389275962946933
-0.24792339637828769705
-0.19406696661326877651
-0.22795643065018791895
-0.20734409755145391530
-1.00000000000000000000
-1.00000000000000000000
-0.94744343399256814031
-0.78504169525768408011
-0.83996428162141012486
-0.78907610658658922098
-0.42259621408838310419
-0.42171445082189801257
-0.46531885016882856831
-0.46541669051664391610
-0.20278542968644913680
-0.32630237078376889137
-0.32831503701295949860
-0.29164237698882705674
-0.73572898337330872032
-0.38279406533297366533
-0.35476664510070171632
-0.34857092562269265112
-0.38602445148878039571
-0.29206467126757712505
-0.14961206141038776996
-0.17011832561894568716
-0.12654637885884742476
-0.50457161436134279064
-0.50002429851129559513
-0.54858574648536817531
-0.25382942696277160932
-0.22331595392859726612
-0.25790145973746225749
-0.63409045751020398640
-0.58945591899545768388
-0.58176464353147461228
-0.21740992334411335385
-0.15366953459067783649
-0.13466132521942753009
-0.17764127685453329208
-0.16436414591634815330
-0.94579060362880618129
-0.89323403762137432160
-0.89158120725761236258
-0.83831145125764816584
-0.54089447102138510370
-0.28137258201106019051
-0.32116747329488548601
-0.28650747949994359587
-0.38136666810324243437
-0.33925535885161667293
-0.38048490483675734275
-0.31497175381687642082
-0.34391314223715463427
-0.46178663747696274688
-0.41808439778221684335
-0.41445434474253561863
-0.66037675823338337633
-0.72270922674553372822
-0.67339651486115836843
-0.16994444612663470173
-0.14582192564000062696
-0.17866290919981503427
-0.45723932162691560688
-0.25853750518049700702
-0.22458804481466687619
-0.25811521090174693871
-0.62107070088242899430
-0.10734982582906105186
-0.08815327279927467896
-0.13041550838060139705
-0.22395199937163207116
-0.11140729900935110452
-0.14024162542971407852
-0.18462900562191131293
-0.15775411848419315652
-0.19053503620639522520
-0.94579060362880618129
-1.00000000000000000000
-1.00000000000000000000
-0.78182045635917041260
-0.77859921746065685610
-0.83509021235913460934
-0.15178802206209690562
-0.37641061522000790474
-0.33518106923486723492
-0.33110677961811779690
-0.71948798784702017173
-0.37278056218032673552
-0.25455681582511935357
-0.21747125466141165040
-0.24942191833623592045
-0.53395041034457069173
-0.49308023783448118316
-0.48613617715766677119
-0.27487288954048016976
-0.26837319706990009349
-0.30847206134629634455
-0.30381427796075838321
-0.22102964973803926330
-0.41045146907136220715
-0.40644859340018885119
-0.45323644595574219540
-0.08538233801924391408
-0.04421829717964040340
-0.06618578498945754118
-0.56787299969917548470
-0.55398135586687635712
-0.60717905705012986672
-0.16114690482862661924
-0.19286747482164673384
-0.19223142937861192880
-0.15945051165640988788
-0.10751811877975075982
-0.08037491234007400343
-0.11309841899003730825
-0.44629238527892778343
-0.06919323706635518989
-0.05023320133343569388
-0.09244726327643161545
-0.52005876651227156415
-0.88860968474959556307
-0.94430484237479772602
-0.89009544600360390731
-0.83360445110512615408
-0.20875248988369321523
-0.24506253594737670287
-0.21311187227255243282
-0.29581998014107896422
-0.29989426975782840223
-0.26053318066404013154
-0.23856284347679665436
-0.12118464455634408994
-0.09654736347268753904
-0.12715074097844034084
-0.06530405683675484518
-0.26445318886697011251
-0.32871470076016395812
-0.37158452275134978837
-0.32991074018914090527
-0.66406613313198503690
-0.66775550803058658644
-0.72317736274562172127
-0.36758164708017637690
-0.19131130904267931725
-0.15803457327069175831
-0.18775291396605170435
-0.08846113790638077123
-0.55826737863898667769
-0.56255340141109710927
-0.61146507982224029831
-0.15959073904965920265
-0.04810294772456034235
-0.02613545991474320110
-0.00805262264984600053
-0.02914291199164084634
-0.12978231752306990110
-0.10181051656194665955
-0.13147871069528663246
-0.61515445472084184786
-0.40130377500640151966
-0.44371997608203417318
-0.40387618420329518543
-0.94430484237479772602
-1.00000000000000000000
-1.00000000000000000000
-0.09917894001731709930
-0.51460809233417559305
-0.48068550297957085560
-0.47523482880147494001
-0.77443616538445247954
-0.83152292506702396579
-0.77651769142255466782
-0.26672324275022196716
-0.29891501118416985427
-0.26362821170713102159
-0.18713474550170944299
-0.15679823634200726334
-0.18277536311285025317
-0.72109583670751953299
-0.29771897175519296264
-0.23818867077520761155
-0.20837831718210420018
-0.20800414448051515737
-0.23426866257227763057
-0.15741640480634949695
-0.04820137663059398392
-0.03313052112727482568
-0.01602784092111395747
-0.43826930190393820208
-0.51889411510628602464
-0.36910885220328371048
-0.33024190588327129170
-0.33176911100637862528
-0.06694184679978691654
-0.05885562123348014874
-0.03733633012688629405
-0.36653644300639010023
0.01303029498232631186
-0.00505254228257089044
0.03411321261449862252
-0.10248722553949141112
-0.13026089940509158471
-0.13181706518405900130
-0.10214887105071904227
0.00553126007359956273
0.01911514279704512598
-0.01555902926819528395
-0.94261454907516251112
-0.88691939144996023714
-0.88522909815032491121
-0.02668208552400012576
-0.82983263176738875089
-0.07527879609457976962
-0.07264721954995020936
-0.04874707562721286580
-0.56275692286168577105
-0.56296044431227443283
-0.61535797617143050964
0.00154365093796558425
-0.18717697154047044372
-0.16119984476962745390
-0.16560145319724767221
-0.18680279883888140091
-0.24472208211076146300
-0.24162705106767054519
-0.22272092147130095885
-0.21536253297590807199
-0.66357117303353674309
-0.71900366920899461132
-0.66566334053206166477
-0.04304170287704957992
-0.30542583097306252871
-0.27443010196809153323
-0.28213696118596109930
-0.45297095697052236485
-0.50776217919080979257
-0.46410289288599865243
-0.30695303609616986229
-0.11004497823903504339
-0.13342160729052116031
-0.13403977575486339391
-0.43818759386781164222
-0.40122206697027495981
-0.40114035893414834444
-0.61326580867290558796
-0.10626610188926322031
0.05437587364812219992
0.07463853468174577732
0.03329295601594988580
-0.33920984559611189191
-0.37025681030125667803
-0.33548947830124525860
-0.50796570064139845435
0.04687683873939545165
-0.07394732485742576411
-0.04608413315290486867
-0.07428567934619814683
-0.04741560439005886723
-0.94261454907516251112
-1.00000000000000000000
-1.00000000000000000000
-0.75974958964704220055
-0.82248934389868355588
-0.76709287751574728453
0.00202932013374576906
0.02008648118860549558
-0.00862492446914039923
-0.42705565795233535464
-0.37017510226513011817
-0.71166038134028952733
0.03431770892883691942
0.00914493400386148098
0.02671642586294102270
-0.14261169568910136984
-0.12842515503619550410
-0.14701330411672158816
-0.25331553599117312414
-0.26001938937069757340
-0.23801822873123704150
-0.17689463614889971987
-0.18818781910055179529
-0.19809598179053347633
-0.26772624858856708396
-0.20545437028592639095
-0.11923506663761526680
-0.01644261119818775027
0.00445110773051079437
-0.02214798394835103615
-0.28967202003171793612
-0.29720707887747477294
-0.31448809494192669911
0.02720209505872120750
-0.31820846223679333242
-0.08838031733278903235
-0.08460144098301722315
-0.06671565642654302131
0.07209720581780479365
0.11008119902111095090
0.09235986685142835717
-0.56476371304087957803
-0.61416744303720816056
-0.56386207867657700543
0.01226879445955814454
-0.05639989478972394499
0.07526277123500496602
0.07588700778826414084
0.04750107529265463341
-0.51509077675570968946
-0.46009603308483371098
-0.46722110919914500160
-0.94351883795516278131
-0.88613338703032518140
-0.88703767591032556261
0.05510235835855052666
-0.82339363277868393709
-0.02908352590115145450
-0.00941997617509004320
-0.02775205466399745594
-0.37938861353573721802
-0.35763686813732609160
-0.40530391255392422822
-0.00248443422228962442
-0.34842335686671899175
-0.64762256876402524153
-0.70368607920553372104
-0.65559687089878093680
-0.16006143637991149253
-0.14147328729938540848
-0.15452141956257534061
-0.51599241112001226206
-0.17135461933156356795
-0.24544503007208900991
-0.23014772281215295502
-0.23757452415300492343
-0.19994161739905680353
-0.21169541569756178401
-0.21720816858443137143
-0.26374605562126207658
-0.27417657525135108454
-0.27815676821865609192
-0.60619314090245235427
-0.09425420829090068453
-0.11133968166354810125
-0.10214959326496786396
-0.28569182706441292874
-0.08048493235872185292
0.05321903506411305995
0.07212036119938919354
0.04610342119399734456
-0.22463496992528336760
-0.31161939213351269595
-0.32541461886481226617
-0.30441323550549370669
0.13158907478919606993
0.15309695055728117508
0.11386774261951347620
-0.37870929395090069391
-0.42296520157502282000
-0.41584012546071152938
-0.02733333714387140012
-0.04702449678520721071
-0.03670873514838813439
-0.36817308104411339276
0.10363616828842639461
0.13263380189510701190
0.10426040484168558331
0.04233978627452836263
0.06459309136045122968
0.03452209954548101506
0.07400368449382666025
-0.33462813013541936602
-1.00000000000000000000
-1.00000000000000000000
-0.94351883795516278131
-0.00362210786929441581
0.00217576043650121159
-0.02195418635820182984
-0.78271855119639943688
-0.83487811355336249974
-0.77123407042172087422
0.14286537622619410737
-0.67438978920522862914
-0.71706968942613547036
-0.66100617898462687982
0.06835672627992020467
-0.12593908915812543348
-0.12345302328005534898
-0.13898722142131533785
0.03322269815440823115
0.01190136098965909398
0.01883690294245951233
-0.01257878835368509383
-0.25882935921735494844
-0.25095885329827083421
-0.26434318244353671723
-0.10885361578547801675
-0.18856299852000241168
-0.17172979875101418434
-0.18893817793945302808
-0.47619920434571866297
-0.52048145869329909274
-0.47171015677243183228
-0.26925987884744390088
-0.20031679681850739216
-0.72855417020081403301
-0.61057712390988050366
-0.56914769604830772742
-0.57353167905573576579
-0.28044366758317429422
-0.28671075991499744839
-0.29195891939623608291
0.04890789475742973041
-0.06299795809597592833
-0.05928025976540883535
-0.07676723402815475994
-0.29916507602425507217
0.16774360856002612508
0.14623573279194099217
0.18239026656277104732
-0.04330679845464011773
0.09972700481128536631
0.12356700183430659179
0.09784368151684788573
0.01769922929545472007
0.12810040186470680879
-0.42700487035023271254
-0.38274896272611058645
-0.38678863150132042348
-0.21908406875136066105
-0.22647272180515956586
-0.23202362297908224464
-0.34282211647305138591
-0.31981337847114466033
-0.32800736480877662471
-0.35335832937983868707
-0.52486544170072724214
-0.62396073413048225298
-0.94638301940087699027
-0.88990185735603977157
-0.89276603880175398054
-0.83774229499907670871
-0.43149391792351954322
-0.27552697117926705506
-0.14703944980365341033
-0.15078043468311436159
-0.13524623654185438659
0.09525396557941075149
0.11838756995943230943
0.09149033065994177649
-0.20770544987230629697
-0.16798881387155323308
0.17309618832346601591
0.19309542608965085675
0.16286461399237894820
-0.24664729529756357351
-0.25572006644212225135
-0.26003162444282945653
-0.09689979837768950000
-0.09954538846447830158
-0.11149920587226683222
0.00627286525032274677
-0.01053023594677432624
0.00422431284341197918
-0.07941282411494357540
0.12097728589686945755
-0.24109639412364092248
-0.30633042587055436812
-0.29387610976129674434
-0.30104145960759598477
0.07129603035553580548
0.07799896935062039516
0.05561083375251431316
-0.69026528166254808028
-0.73649191642947375858
-0.68232753543388835471
0.03729370225899565627
0.04136470636358308833
0.02177023340004214866
0.20102607733382321653
0.21966188810487541350
0.18637941933107829429
-0.02693000391235064739
-0.04310513183887974137
-0.02713167052811102375
-0.31134399801361345439
-0.31106860389371415732
-0.31953798435124536326
-0.33062865589559842228
-0.35870864369845945063
-0.35466897492324955810
0.20637865709726313512
-0.32931801035218755125
0.15540949676184565020
0.17818519162858428850
0.15087609673144544709
-0.12329241913406585596
-0.59031438068116770523
-0.63235208494319816719
-0.58192302986845168000
-0.30605503175065507104
-0.01032856933101394988
-0.27214032003392463199
-0.27993745762431260227
-0.28332410876965502533
0.18564030885911758650
0.02381878580695291625
-0.94638301940087699027
-1.00000000000000000000
-1.00000000000000000000
-0.48263020134322653920
-0.48906119834073441544
-0.53129643869823506286
0.11804877715451801701
0.11770998434960372458
0.09115153785502747019
-0.84194957157486038923
-0.78692582777218311740
-0.79113310434796668691
0.05968183785710173828
-0.20220093036550518262
-0.21546368279155733716
-0.22096820229835845151
-0.26782876203321742681
0.09785447685011205987
-0.64028983117185789276
-0.43457830913597561562
-0.38987302271377644036
-0.39295741392623251276
-0.16262192956555870937
-0.17820440932746398066
-0.18357129363345850437
-0.74069919300525732808
-0.29048945861595432127
0.14436532815897562543
0.14695504409641277355
0.17034308635851894143
-0.05658093354746459441
-0.05388160732952035348
-0.07671349789699932753
-0.53968778951095108809
-0.25157172251373793870
-0.23694805019525655432
-0.24742337858535357054
-0.04040580562093550043
-0.44100930613348343634
-0.13575134048074263826
-0.14139539514219801042
-0.11764836447261046992
0.21676456082762718403
0.25113885509248334849
0.23540037159867938099
-0.19683404605951065891
0.17426413899355161496
-0.32625818372239223653
-0.35652340761185630225
-0.32844341980899532940
-0.31142721895627240025
-0.31971729188252451248
-0.31124791142499330654
-0.32102793742593538351
0.22235979585793622104
0.23564302686554849942
0.25162416562622158533
-0.23144353068845546773
0.04091926203147275981
0.04047381769936243129
0.02337334147484258773
-0.35960779882431237464
-0.94743941877010851016
-0.89382243817098550043
-0.89487883754021702032
-0.15697787490410330946
-0.00371780497894713419
-0.01532390444564889036
0.00127753013568780629
0.07799729491547260918
0.07799562048032480932
0.05968016342195395230
-0.84300597094409179810
0.20178748163919357772
0.20924259886972687572
0.22538977164980289469
-0.30382353589993793541
-0.30660561219227994156
-0.30883710804299702168
-0.26412049702230067094
-0.27252092760247903502
-0.27622919261339584640
0.14081566254042005015
0.16324375512140781863
0.14047686973550577161
-0.29152744461681606714
-0.29628445211220599820
-0.28573245112056433470
-0.59769942302385958843
-0.60508446536655147163
-0.64767487351454977595
0.16679342073996339391
-0.25997215309391630278
0.11840617163256200728
0.09820257049159120122
0.11805807799108286593
0.23850696863801224001
-0.02879970615423374514
0.01837800636020764725
-0.74304346723274228292
-0.69260955589003292410
-0.69495383011751787894
-0.09036961434115847736
-0.09495750140281838947
-0.07212561083533941542
-0.11306047741095055781
0.05923471908984362377
-0.54858398935632679549
-0.49795739818611017835
-0.50685359803148588576
-0.30901641557427617091
0.25162096589229826504
0.26735944938610223254
0.28358004367972111659
0.09820089605644341524
0.23094607760597937740
0.20064458198224915941
0.20456563461728183295
0.26760210465297135096
-0.40496494908715952032
-0.44701307371394694012
-0.39896118150669601654
-0.31491196784579728041
-0.31709720393240037328
-0.30356575196920232429
-0.30749648546273733452
-0.65001914774203473080
-0.30127456011041442441
-0.30150766061323280853
-0.30405663640275637505
-0.28202418610964752332
-0.20781730600000000719
-0.21164049439577867218
-0.19301085766373199393
-0.29651755261502443783
0.22816792462789114992
-0.22764825589577866727
-0.23983282899999999738
-0.24362810379267679783
-0.55596903169901867869
-1.00000000000000000000
-1.00000000000000000000
-0.94743941877010851016
-0.15308538224037132602
-0.17041942400000001379
-0.17431191666373199722
-0.32300766960309224007
-0.35798254176466237642
-0.32463292666274223830
-0.79030744496394045306
-0.84259314125207873669
-0.79072027465595362550
-0.45590927355932270304
0.16154332568900103828
0.15984289625659428569
0.13877644030309899126
-0.04338336708154200139
-0.04863248720553117743
-0.02355058603024456909
0.13912453394457813260
-0.74263063754072922151
0.18750669631735439324
0.19105636193590996852
0.21176963751330099561
-0.22382506750000000229
-0.26563680800000000204
-0.26907886780123951853
-0.25653009329267678629
-0.36398630934512588020
-0.06687649071135023937
0.04180757226488125006
0.04314132683040006883
0.01971176092572646601
-0.18911836500000001049
-0.30260553382890009733
-0.29860545546552025309
-0.30501633721089632667
0.07334138576739054893
0.05690760173337648664
0.07566850312385767219
0.22135785755964018651
0.25030949640589644778
0.26342669339410579310
0.27522922116199000087
-0.12860776800000001119
-0.13217955424037131085
-0.10948869117057924427
-0.25273481850000001359
0.30087706607918940360
0.28465647178557051955
0.31817408847865763510
-0.30108560371736126093
0.29803281239198564645
0.31248558110425023182
0.28205487336523593633
0.09451321562783554509
0.11471849120395413713
0.11103081077534628085
-0.14951359600000002636
-0.27854093030123949770
-0.28456093300000001589
-0.28804418880840804151
0.25308764938398470301
-0.29621478491744990258
-0.28886381786569748087
-0.30756100079404485870
-0.30593574373439486047
-0.61367945580242155845
-0.65431664295996971870
-0.60938196058448657055
0.05824135629889530541
-0.94753039639608571676
-0.89496981516619422692
-0.89506079279217143352
-0.56669024772837595094
-0.51757481406084315800
-0.52829603009020043025
-0.84268411887805594329
-0.30378385259163909193
-0.30123487680211558093
-0.30096209299099829781
0.29385740113312008859
-0.29881136980661637814
-0.29382126180840806295
-0.29611507900000000326
0.09218609827136842183
-0.27509887050000003672
0.00446360901946510433
-0.01945987903103844896
0.00037290202025898507
-0.42392926047565371306
-0.46539142925356979941
-0.41444710478140661669
0.02380246792493258615
-0.29978377422825930321
0.20219633779628273795
0.18101961702643851182
0.18272004645884526441
0.20698298765479186678
0.13632641782559545840
0.15704478013761158373
0.15424666401862888176
-0.73309201272850854636
-0.68541520530529731481
-0.67587658049307675068
-0.06342430314077099340
-0.08346523919999999930
-0.08691742677057923139
-0.29033800600000003733
-0.32661594570485069644
-0.36579044739600508063
-0.32481180765397144050
-0.57098774294631104986
0.13263873739698758825
0.26388133272290337228
0.23782548511810219782
0.24741370516444138872
-0.10603650359999999830
-0.64477801814774915456
-0.29074231037695685842
-0.28287916528839346375
-0.29322245862879792178
-0.47611264528292707165
0.26298730935070468995
0.28512888112870998780
0.29502854109542997474
0.33343658137422665932
0.34869907426979568354
0.31613955897475842782
0.33059232768702295768
-0.28587149157704550007
-0.37527260309025223251
-0.30075383030661639872
-0.29999999999999998890
-0.30048104649549911560
-0.29805753950000002384
0.09451272010517375310
0.06882702346778690750
0.08392705293628215102
-0.94753039639608571676
-1.00000000000000000000
-1.00000000000000000000
-0.29830649308218659677
-0.28123456721348916165
-0.27360531656128089795
0.27945493690916667351
-0.84256745344785954899
-0.79019077953374405876
-0.79007411410354766446
0.10277176544026001004
0.30449238173558396126
0.32312056170671410449
0.33375554230917792164
-0.03616100409999999793
-0.03977218559077100313
-0.01584869754026744723
-0.30011063113306579719
-0.73297534729831226308
0.19928909926650306694
0.19638186073672342369
0.17811237849665884081
0.17531426237767616660
-0.29596554722529078152
-0.29096900145958332073
-0.29478722846255178691
-0.05981312164999999514
0.04766972429691483659
0.05219812176342961130
0.02833086539144735738
0.24057726222389150261
0.22138680001008712028
0.22617344986859624911
0.25222929747339745132
0.31439204170230394819
-0.54381574317700631660
-0.55933545626381220295
-0.58650745603311693621
0.07335542093430168220
-0.28908748393758854078
-0.27956951240965688399
-0.28122433884902520163
0.12813661655344071866
0.14974454317508201218
0.14524242233153514259
-0.61760601837844442130
-0.45389820780909773124
-0.49109711894964908074
-0.43891373414237572215
0.35108867935620990952
0.38400327023376218394
0.36635117225177893374
-0.28526925693462013012
0.34644187985117025352
0.36454862643394303490
0.38039817859809033074
0.11987757121835444785
-0.26426508067998727425
-0.27656444927284240531
-0.27357212298419036900
0.35707686045363412619
-0.26893519862063408610
-0.33454229451014466656
-0.37923577749289916206
-0.33057912010749768150
-0.29805753950000002384
-0.29611507900000000326
-0.29853858599549915054
-0.94764329671215863371
-0.89517369310824435047
-0.89528659342431737844
-0.84268035376393246594
-0.50661683203645502260
-0.29354204022979168975
0.31699985365453070552
0.29044059318871706665
0.30601419737498036788
0.01207978200000000071
-0.01204061104999999861
0.00827169550973255209
0.03213895188171480427
-0.74041770521417349382
-0.68331893840893798142
-0.69076129632479932319
-0.39422025115962122666
0.22021752483154738433
0.23823871186681203072
0.21731028630176774108
-0.26807017240776542799
-0.26253502825424990252
-0.29457548697955027173
0.19244446487916125332
0.18850706902159908296
0.17137686652011396848
0.23940798704535176666
0.35020493911060368575
0.32261674010301683024
0.34198024070989080370
0.16687474567656712665
-0.58759757518564503798
-0.63173707783936094984
-0.57346651572472862046
0.27405537199563412276
0.28422941126836481773
0.26240333674612814630
-0.29853866138219731230
-0.27446990563500217597
-0.27281507919563385833
-0.26606064598161088819
0.09814656058432143226
0.07517234117387552872
0.09632964034474758575
-0.63917943575522218058
-0.26516286333079908122
0.39867020988971468842
0.41333714954566724842
0.38101811190773149374
0.30061463246144776162
0.33360239638256716788
0.39686766407187878958
0.13921207117100903305
0.11686239563809139308
0.14222724675127207394
-0.27627263714594851862
-0.28197238167091170924
-0.27297576188224009774
-0.25834447746815825120
-0.25367435952751143935
-0.24308363837503563221
0.36042821906331001802
0.38374953720776622257
0.38710089581744211440
-1.00000000000000000000
-1.00000000000000000000
-0.94764329671215863371
-0.84391951769756823332
-0.79131327803718343183
-0.79255244197081908819
-0.25280933331464278124
0.26123406156758843810
-0.48574009728691536214
-0.52253777677536383806
-0.46981915254800654669
0.11867931587766522572
-0.74165686914780915018
-0.29033800600000003733
-0.28456093300000001589
-0.28776496722979166831
0.36865291746402290007
0.06000770810000000122
0.03604374504999999923
0.05610291493171480626
0.21323857329660730886
0.23416699886165159850
0.23009528585649119403
0.20930117743904513850
-0.41790669527818413709
-0.35822873862870763251
-0.38191518274727054294
-0.53666883623628014455
0.07907713434216070980
-0.27876834744112005682
0.18502177060968705291
0.18153647219777502286
0.16338944726465509660
-0.26213074494796506642
-0.26888517816198803656
-0.25820084391431918913
-0.29489817222826431031
-0.25889453910031690054
-0.25525404994638389855
0.16037427168439202796
-0.26558830289827961568
0.43055904137159511924
0.41589210171564261476
0.44778093319752299006
-0.25624425863533423220
-0.24642787128905757621
-0.25534647598452242523
-0.43382764001709295254
0.44409615772875821182
0.41224716816342427128
0.42871665363721273012
0.36927518255835750649
0.34313751810644410600
0.35974006083448062387
-0.24475575483204659033
0.32738328834841723403
0.33776672304230376254
0.31099806715533429013
-0.59432653489192222018
-0.60105549459819940239
-0.64590839546149936279
0.40520671969668287105
0.40185536108700703473
0.42331254357592368320
0.27341803172770945407
0.25582837179726075627
0.27882372149803713590
-0.94727590134830208513
-0.89491919806046082986
-0.89455180269660428127
-0.84355212233371168473
-0.23322892876238376925
-0.22337421914973193404
-0.24295462370199091828
-0.33159576357583758766
-0.30790931945727462171
-0.28127634440440463237
0.43370435065234091976
-0.74416384733853946365
-0.69326827451552952564
-0.69577525270625972809
0.25175665879210029630
-0.26826519717539426546