VARIABLES = "X", "Y", "P", "U", "V", "divergence", "vorticity"
ZONE NODES=7045, ELEMENTS=13692, DATAPACKING=BLOCK,
VARLOCATION=([6]=CELLCENTERED), ZONETYPE=FETRIANGLE
-1.00000000000000000000
-0.95520029503296965956
-1.00000000000000000000
-0.91040059006593943014
-0.95520029503296965956
-1.00000000000000000000
-0.93143512259360250471
-0.86287024518720500943
-0.88663541762657227530
-0.90044763554534479333
-0.89049468102475026754
-0.94524734051237513377
-0.85572788067417526747
-0.83196270823480811263
-0.80105517128241121583
-0.84577492615358074168
-0.94524734051237513377
-1.00000000000000000000
-1.00000000000000000000
-0.79603343679571225699
-0.72919662840421961558
-0.76512589984331547122
-0.82109098929828094882
-0.77637123442711142296
-0.75168729757181163009
-0.88717911847954722404
-0.88386355593434418054
-0.94193177796717209027
-0.81777542675307790532
-0.69851813654760119832
-0.66783964469098278105
-0.73444740798669694293
-0.70976347113139715006
-0.94193177796717209027
-1.00000000000000000000
-1.00000000000000000000
-0.66451980140298849697
-0.59984297440175748939
-0.63384130954637019073
-0.77486071733524952698
-0.82936213663479685376
-0.76327400745353057854
-0.67519455253110050030
-0.63327072609068602027
-0.59870180749038937051
-0.88821591474949734835
-0.94410795737474861866
-0.88603973534192070893
-0.83153831604237349318
-0.71430639382283445116
-0.70271968394111561373
-0.65375207031041948635
-0.62622693890040448395
-0.60210990841700795517
-0.56811157327239536485
-0.53638017214303312930
-0.56754098981671119439
-1.00000000000000000000
-1.00000000000000000000
-0.94410795737474861866
-0.78083976128735055333
-0.83452783801842400635
-0.77785023931130004016
-0.50657969332635155446
-0.53831109445571367900
-0.47677921450966986860
-0.73331864513297051467
-0.67276432162055543884
-0.69177657293069150235
-0.55898545758979045761
-0.51926910768919154471
-0.58651058899980546002
-0.73630816710902102784
-0.50410634758057693006
-0.47183252301812073082
-0.53526716525425510618
-0.94505424369907109483
-0.88916220107381982451
-0.89010848739814218966
-0.83547412434274637150
-0.49555081535365613776
-0.44659956185440025100
-0.41641990919913063340
-0.47640004067108188135
-0.62145818864687951688
-0.58916430698333965843
-0.64047043995701558039
-0.55421670733626560157
-0.44412621610862568211
-0.67535374665275094141
-0.65893092037481038048
-0.71988534083108046691
-0.94505424369907109483
-1.00000000000000000000
-1.00000000000000000000
-0.83509119046774737960
-0.78045682741235156143
-0.78007389353735245852
-0.62404761367907501945
-0.41906131324176487674
-0.36134341197385988487
-0.38888166058649525914
-0.71950240695608136399
-0.44063618298536344486
-0.40943984295260610340
-0.46435447532089879630
-0.38792608160692843011
-0.35943225401472628233
-0.41563238851642347882
-0.53450137366361849534
-0.49955377401654443847
-0.47983844034389733224
-0.94549225724424001971
-0.89054650094331111454
-0.89098451448848003942
-0.38443604848366619287
-0.83552920401291630448
-0.59369964509404260511
-0.55881633839830713306
-0.52846836981327471872
-0.47665869917192238425
-0.42174406680362963584
-0.43404829065465316829
-0.45694336549927527802
-0.36134375435359594730
-0.33380550574096057304
-0.30626759950806126120
-0.33284992676139379952
-0.67477525108718106051
-0.72742457231226675951
-0.66685308573099577600
-0.50415340507858608099
-1.00000000000000000000
-1.00000000000000000000
-0.94549225724424001971
-0.56488685579298980599
-0.61190888808390009324
-0.54667761280313231786
-0.78346117841355500389
-0.83722284645101752165
-0.78176753597545367569
-0.33266599572018806796
-0.30589973742564990911
-0.35766979018912803401
-0.61983105344008548876
-0.72911821475036808771
-0.27977702495249567871
-0.30731493118539499054
-0.25328645039693004071
-0.40206980289221716518
-0.38976557904119363274
-0.37009131512978116207
-0.47069144209389673916
-0.44637647735920804593
-0.41291451437451875961
-0.28090697275577314329
-0.25554634600348508089
-0.30748930000910568161
-0.41145594886782710375
-0.38886360708100098371
-0.43435102371244915798
-0.33799552627771556335
-0.28072304171456752275
-0.94567414189153664594
-0.89116639913577677667
-0.89134828378307340291
-0.83740473109831414789
-0.51298644952826533139
-0.49477720653840778775
-0.46108604326354085678
-0.40088906072775987166
-0.37947746110539104514
-0.57138456884901811517
-0.57788228190504642434
-0.62632876649611368691
-0.43700027881902980820
-0.67866610733461696370
-0.73106364287408598379
-0.67672067921089906761
-0.22857769404800509783
-0.20386893769908018270
-0.25506826860357073583
-0.22970764185128261792
-0.62827419461983169402
-0.34055079937616122843
-0.30845501052409562970
-0.31101028362254129478
-0.94567414189153664594
-1.00000000000000000000
-1.00000000000000000000
-0.25597878470373791604
-0.23080208899265552969
-0.20605783198182597848
-0.34993694535177111149
-0.47992620992980167260
-0.52240653286139571154
-0.47050612659667123694
-0.78288408184309643545
-0.78230698527263775599
-0.83682763452785557945
-0.52890424591742402072
-0.73048654630362741536
-0.36723180550957890134
-0.35520635186282001339
-0.32154909664463909857
-0.38028861577356259938
-0.42068732951855170032
-0.39660156507404065174
-0.20262688241992149463
-0.15196731444291294855
-0.17791812607099655175
-0.27157601565573508129
-0.26902074255728936070
-0.23214174768892881229
-0.21909978983537739539
-0.31627969013359019668
-0.18207213528314175610
-0.16027533286720330175
-0.20791083943534419132
-0.18316658242451464012
-0.57725475963050953965
-0.57662723735597276598
-0.62764667234529492035
-0.88972955343603044032
-0.94486477671801516465
-0.89053891860955192161
-0.36651838361897504104
-0.32083567475403518277
-0.32012225286343126696
-0.83601826935433409815
-0.35020543431849693317
-0.43470422402055958200
-0.42528414068742914633
-0.38948223811131749139
-0.53053447464103153930
-0.48155643865340919119
-0.48318666737701670977
-0.38488542694244004538
-0.67136312110474050119
-0.72683505318868912859
-0.67501461421967867693
-0.52990695236649476563
-0.24356872612883767593
-0.28255891138673838725
-0.27728950487568948535
-0.15556886241706502361
-0.12961805078898142041
-0.10726878713504987839
-0.62399517923035663358
-0.23785523690888324411
-0.13377206000112659701
-0.17956353608075606432
-0.15306924017968615015
-0.19260549393430748122
-0.13237976300203929680
-0.16921879749193263764
-0.14632754793462129927
-1.00000000000000000000
-1.00000000000000000000
-0.94486477671801516465
-0.77533086377277815604
-0.83253020860440429818
-0.77881892452270795602
-0.39039426405406740805
-0.39130628999681732472
-0.43561624996330949866
-0.43724647868691701724
-0.14272450159086272348
-0.28328307552469200736
-0.28399649741529592317
-0.24644389818595277553
-0.72334699243875932861
-0.34573400438585821792
-0.31565082293079249620
-0.31117939299815378096
-0.35033081555473566393
-0.24500631215739521185
-0.08181392624553812665
-0.10416318989946965479
-0.05635906535602636103
-0.48029796494930865336
-0.47740926252160065246
-0.52701824993878676473
-0.20056487389506499897
-0.16898800010120121340
-0.20627836311501945854
-0.61746296824358903876
-0.57009502636920517116
-0.56356281538243757634
-0.16102862014044366790
-0.08694032323164777032
-0.06661185932824566225
-0.11344359609772447506
-0.09949581116514247259
-0.94348976512820703633
-0.88835454184622231200
-0.88697953025641418368
-0.83115519701459616986
-0.52048603895201916991
-0.24148198660774564117
-0.28080211973558844019
-0.24396294239684920835
-0.34822822641795392329
-0.30697421472459041070
-0.34914025236070389546
-0.27633068980294972494
-0.30907680386137209583
-0.43583565435024473889
-0.38989546566014504636
-0.38848464132347276800
-0.64674448836591769130
-0.71103767606934797918
-0.65905380473532915175
-0.10675523085778215737
-0.08113069871352501794
-0.11709996944660558404
-0.43294695192253673799
-0.20943269222891813808
-0.17529665832899862798
-0.21087027825747570176
-0.60515365187417757831
-0.03536096365575075451
-0.01436286195547514279
-0.06081582454526251319
-0.17214232921509992069
-0.04048736064186040512
-0.07387127902088533316
-0.12546415528991991528
-0.09785907040015368041
-0.13342353525067746078
-0.94348976512820703633
-1.00000000000000000000
-1.00000000000000000000
-0.77265966762708981896
-0.76998847148140148189
-0.82848400086890783278
-0.08949488455683934918
-0.34834116407277149197
-0.30617512643665800720
-0.30537603814872565922
-0.70836647992365953108
-0.34693033973609921361
-0.21100735265275163965
-0.17557080711955050378
-0.20852639686364807248
-0.51526534204737206579
-0.47218856561695354834
-0.46696786871230649973
-0.23908127731132888805
-0.23668056801491216268
-0.27392998050653294406
-0.27182739136975131444
-0.17543373272427456588
-0.38697763617161567984
-0.38547063101975859167
-0.43143994677067964982
-0.01084421105607348210
0.03467064324387939683
0.01015389064420212789
-0.55048646534729428481
-0.53741011531215110431
-0.59207730183903439780
-0.10768791120692906838
-0.14149228476796385512
-0.13833795565406514783
-0.10277349080354136746
-0.03783454342554861544
-0.00905722752285156689
-0.04509396311818829328
-0.42621924986603254570
0.00600596604026797706
0.02637479403601109690
-0.02011853264611728268
-0.50218899201222877426
-0.88443072102353259556
-0.94221536051176624227
-0.88570512563997338962
-0.82720959625246703872
-0.17787105706564265706
-0.20967652183669416299
-0.17672093209259659430
-0.27229331087031583003
-0.27309239915824817801
-0.23921058359190597309
-0.20727581254027740987
-0.05597375945486955662
-0.03081682019621408836
-0.06433794529818388785
0.00865878325657976414
-0.23794557580340908176
-0.30976957088868739554
-0.34912710610608010953
-0.30757280451870649962
-0.65141537038707464369
-0.65608625240823148506
-0.71303736194481648347
-0.34762010095422302136
-0.14468869602286660303
-0.11408073371673459195
-0.14482577041814254093
-0.01993702385953282849
-0.54266093234485857089
-0.54791174937756603747
-0.59732811887174186438
-0.11088432246183183016
0.03004272038862366642
0.05455947298830093883
0.07444830273272247390
0.05041154838436678887
-0.07074390377016517850
-0.04362873714017668353
-0.07565832417355287942
-0.60199900089289881677
-0.38507008257762459502
-0.42601897564496554738
-0.38527035679869159335
-0.94221536051176624227
-1.00000000000000000000
-1.00000000000000000000
-0.03722277866819538594
-0.49834363157078248596
-0.46312250827086021143
-0.45927714782941386762
-0.76644163884563409894
-0.82543617993458329174
-0.76821505516351784593
-0.25416694794574978822
-0.27977149304723769596
-0.24668876576882786678
-0.15078103634126077681
-0.12599126556297102209
-0.15193116131430683957
-0.71126394562693273649
-0.28196825941721859188
-0.21361333579004865291
-0.18420858031541390010
-0.19054610356518514314
-0.21487834357854557199
-0.12003599963985281396
0.02656864015083936284
0.04428465093027069560
0.06219450782453029430
-0.42217361520351925908
-0.50359444860349000805
-0.35222783595738782481
-0.31437730589185219898
-0.31898504089501705794
0.00190362507832260441
0.01278342141500386428
0.03462407035285929718
-0.35202756173632082648
0.09819186356702747087
0.07830303382260593581
0.12193542440133246785
-0.05570955357872624247
-0.08489514364773041721
-0.08169873239282765542
-0.04966914535945146647
0.08893365438092298847
0.10341900602912348917
0.06489690003256728956
-0.94056791853955457050
-0.88278327905132081277
-0.88113583707910914100
0.04840928908869479574
-0.82378873796237161997
-0.01422687512266808396
-0.00782091665068678638
0.01517498689484051561
-0.54864297247579618677
-0.54937419557402633608
-0.60273022399112896608
0.08280675692682688827
-0.16336283959101732810
-0.13742294383968151061
-0.14885462211639197139
-0.16970036284078854338
-0.23518309240343507338
-0.22770491022651317969
-0.21619923686112035854
-0.20337267021315275084
-0.65220968987680771889
-0.70932566436122090892
-0.65414797114251954646
0.02489952862384990639
-0.29235378713866844169
-0.26455247566719963803
-0.27493800338864948785
-0.43931352068105566921
-0.49361263502931085334
-0.44929533425523476842
-0.29696152214183324514
-0.07810378812844448460
-0.10204752684570775334
-0.09609226092258954521
-0.42371200106250817008
-0.38660846843661356154
-0.38814685429560252805
-0.60079194272541702748
-0.06690667085358537047
0.14444803472665437849
0.16696064505197627525
0.12070447389234936764
-0.33078185857256797719
-0.35792597057509628611
-0.32488344973379251757
-0.49434385812754100264
0.13518982554054986833
-0.01929738206205596635
0.00503397301606474737
-0.02533779028133074929
0.01010447995545263149
-0.94056791853955457050
-1.00000000000000000000
-1.00000000000000000000
-0.75122909337965682042
-0.81618246522938298071
-0.75883536611264545968
0.08046486565481986153
0.09873522348510943569
0.06667964691898436991
-0.41373018748832912639
-0.35946435643408525262
-0.70171939162823226965
0.11831592438505986187
0.09025521610479507462
0.11086746520709167552
-0.11790698210500333287
-0.10982269864703562978
-0.12933866038171379365
-0.24964048343644051897
-0.25190371569109515359
-0.23291986014878043876
-0.16469972187107997930
-0.18054482162576798721
-0.18554546259547655129
-0.26228924341254500341
-0.19837202924344415900
-0.09396324338774006413
0.05452327765831839479
0.07442248496377749933
0.04479873592930901094
-0.28414640647006822460
-0.29335480955148696136
-0.30616992522325203741
0.10852557393508464878
-0.31206833406202749703
-0.05501104123224950793
-0.04381392395739038687
-0.03191829433605453126
0.16467792690002783229
0.20742042939872318286
0.18719053722534972906
-0.55088462749307010036
-0.60154715868493890962
-0.55012941153354821822
0.08657885422444347445
-0.01344216065999489194
0.16675916594354023292
0.16655768683510421835
0.13498834643211385376
-0.50131411274810033785
-0.44628377530161500442
-0.45325402992217428411
-0.94143016128799184017
-0.88199807982754641067
-0.88286032257598379136
0.14243680561008204011
-0.81704470797782025038
0.03277295079299941127
0.05037091469115830000
0.02770244385361152195
-0.36896952763663459773
-0.34979220097766672293
-0.39455286082936119607
0.06239669982746789967
-0.34028702977511737782
-0.63546184718686293813
-0.69334547028325987927
-0.64383576853183532851
-0.14676613595400353485
-0.12725017421932535711
-0.14467764979161509831
-0.50206932870762221999
-0.16261123570869154276
-0.24251338292368046501
-0.22579275963602035704
-0.23538628241092038329
-0.19420949801433595727
-0.20787417440290395509
-0.21203670563201215682
-0.26065484266152993964
-0.27166920188661930480
-0.27330360263763442408
-0.59317323733996651924
-0.07312821110944268954
-0.09147545487823915966
-0.07561599961894358013
-0.28251200571905310532
-0.05252325272274861040
0.13852815078246608071
0.15874037717987229956
0.12873780033249088151
-0.22163022840691215531
-0.30986245336137174800
-0.32032215596696989035
-0.30160863145642935468
0.23185714192080700280
0.25629385444289082274
0.21162724974743354900
-0.36903481990310377236
-0.41114442491263902824
-0.40417417029207969303
0.01027485852434272505
-0.01082171790585590224
0.00765441577020373621
-0.35941351044038527540
0.19944006444009437784
0.23191948382821250818
0.19923858533165836326
0.12029262545379590388
0.14185002742248237206
0.10813625619312994264
0.16264903200748825896
-0.32982732716951923546
-1.00000000000000000000
-1.00000000000000000000
-0.94143016128799184017
0.05160265643382665190
0.05283439817649499687
0.02893418559627987385
-0.77435500646147892301
-0.82860766451873135718
-0.76279204992056781620
0.24410666913555167934
-0.66235794608915787851
-0.70679351973440729395
-0.64890989663801046383
0.15029520230117732194
-0.10998849009123465303
-0.11015428153543369016
-0.12741596566352439424
0.09632148762687073318
0.07334620115901452353
0.08537198629532410932
0.03155462835041886183
-0.25638129714535307091
-0.24925419663259296144
-0.26312211085426556734
-0.09164124632243819679
-0.18280399712748401919
-0.16487041121040757474
-0.18506317262920007893
-0.46047222949342636600
-0.50567842849324828869
-0.45686312970780029730
-0.26739565637044243607
-0.19646867351605201701
-0.71835647627531840076
-0.59707841880811596269
-0.55478980896121954380
-0.55869499042936887623
-0.27870002658956810615
-0.28573085129251690750
-0.28954283042200190668
0.11908575752467655262
-0.03323235971743168649
-0.03454642509880884865
-0.05383731810412577257
-0.29779665232694429999
0.27326353116993484793
0.24882681864785102799
0.29023320789697887312
-0.01213578328723306093
0.19268721673900274238
0.21881674664290126642
0.18877856191138678299
0.07457794290168286155
0.22536811523555688730
-0.41382327276115521419
-0.37171366775161995832
-0.37439251560013614428
-0.21636752204213938189
-0.22486086968137483644
-0.23012357604614760986
-0.33723542296664427154
-0.31727054915849678407
-0.32467864495562182015
-0.34685673242936276850
-0.50958360996139762111
-0.61052646825926337737
-0.94421882554386127318
-0.88564898683185311334
-0.88843765108772243533
-0.83139632877460067917
-0.41743237254678122738
-0.27442648107339123742
-0.14018168565937511039
-0.14242966772549509047
-0.12516798359740438640
0.18293964617334201872
0.20713891516681171012
0.17449447129464704109
-0.20496202115528744381
-0.16262242914428759466
0.27907702913431359226
0.30186020382573636178
0.26688984382697444886
-0.24520326989205792900
-0.25502025737319544696
-0.25907118411373053490
-0.08005769194740348926
-0.08698717278536428898
-0.09857072716039899651
0.04536367669290573834
0.02781926760862423256
0.04909903743470037107
-0.06076679894208657229
0.21297783090485650215
-0.23994056352728515558
-0.30537217644659458982
-0.29330637541216719733
-0.30088189953181743164
0.14303196209876656297
0.14421389677505078164
0.12026769220096075741
-0.67767422488961492899
-0.72601461567554692600
-0.67001608548938640375
0.09506257662545403164
0.09380366562403731623
0.07331903190026616002
0.31182516341188104558
0.33341711892678316254
0.29485548668483696488
0.00193651947728294563
-0.01630495281076295086
0.00610568900081283512
-0.30999553150303937876
-0.31012860964470695402
-0.31740362730016435933
-0.32550828046728680354
-0.34995039803371147391
-0.34727155018519528795
0.31763866137625973440
-0.32509346271145433960
0.25725678222395870209
0.28259408061970486825
0.25070541363130305346
-0.11358442922236969275
-0.57444866696260421524
-0.61840330652588104687
-0.56657182869598654573
-0.30550525458826216507
0.02365009808509434264
-0.27137287939088827748
-0.27962364792751098763
-0.28267724961001394757
0.29222714222272061502
0.06958367115847152728
-0.94421882554386127318
-1.00000000000000000000
-1.00000000000000000000
-0.46581935529530549278
-0.47116648109718467508
-0.51493073576327674790
0.20199905080181690398
0.19685918643682209783
0.16935460692965223495
-0.83533577800637126565
-0.77829445569324950949
-0.78223390492502009597
0.11900878119954405587
-0.19972954620629296274
-0.21439591978338584655
-0.21962839473238032761
-0.26732195265035318954
0.17053654160593645361
-0.62606144592610957211
-0.41877117448364065133
-0.37573131753699551272
-0.37707011947385493666
-0.15810440812742770911
-0.17602713059548033558
-0.18054515161234019338
-0.72995406490731751248
-0.29025277372966418188
0.23822889513698389252
0.24406781087502865679
0.26931887510715607492
-0.03544589759915330041
-0.03634537009949775216
-0.06166627144243101710
-0.52280757402989441740
-0.25102314339048231728
-0.23594344954457199814
-0.24702602940776915985
-0.01720442531110740261
-0.42411830028551977811
-0.13160916616203879870
-0.13589542591070696842
-0.10929816947370155078
0.33031076807041670484
0.37038832824385448106
0.35190272358531882180
-0.19521152518943307719
0.27595647786343047159
-0.31845374203755405507
-0.34642312881884507192
-0.32198101125242040155
-0.31007625138671496279
-0.31737744817116841922
-0.31010243051571095840
-0.31779226592700088316
0.33585256470076074731
0.35163102225128411993
0.36984492557578507732
-0.23071097459557748932
0.08727825514294015874
0.08075284466184298737
0.06305826067737435592
-0.34776193075570449587
-0.94508118262230556006
-0.88930000816616683323
-0.89016236524461123114
-0.15381814837875956714
0.02160392538209630897
0.01177022242968962795
0.03348380103750102366
0.13791959042200283014
0.13162528406895487865
0.11271447484649610438
-0.83619813508481566355
0.31026634138874470414
0.31989940299176045091
0.33793860215778454004
-0.30353472754780280729
-0.30618755556378818294
-0.30815808260424759624
-0.26370269370642096529
-0.27238513003964648362
-0.27600438898357870787
0.23049625734898362972
0.25385359953115554932
0.22535639298398882358
-0.29152387763905623919
-0.29620288858543686317
-0.28557376278328361341
-0.58125987838414239217
-0.58807108980568056911
-0.63287265734764774905
0.26158623731915581212
-0.25970557972370783562
0.18513944376019839111
0.16467667026762458637
0.19099931509851025835
0.35389176386678478092
-0.00737072235870072159
0.05117838502196964817
-0.73173208778540876907
-0.67945224776770618558
-0.68123027064579744216
-0.08366691147728461120
-0.08532704213132444315
-0.06000614078839118515
-0.10763803881966170495
0.10618906436539893301
-0.53065282508817046558
-0.47901173215546066775
-0.48685698321373671593
-0.30813190347525154511
0.37070448877462613968
0.38919009343316179894
0.40799185862246917234
0.15838236391457663488
0.34110392202590739119
0.30521139856653173306
0.31184900132280612972
0.38891839209912715258
-0.38509587347612078689
-0.42813117728665273098
-0.38108299647498788953
-0.30992175421803891400
-0.31344902343290531599
-0.30138976639852382844
-0.30573300889261939561
-0.63465068022573900564
-0.30116461334715549647
-0.30144732716249361681
-0.30381744136314092763
-0.28195450383935138916
-0.20781730600000000719
-0.21110661289169291299
-0.19192221829774017139
-0.29648560240077492800
0.33952126209184596561
-0.22711437439169290808
-0.23983282899999999738
-0.24342942920388457861
-0.53746403650970864252
-1.00000000000000000000
-1.00000000000000000000
-0.94508118262230556006
-0.15101429508101940624
-0.17041942400000001379
-0.17322327729774017469
-0.31052190533671708561
-0.34379601240528601114
-0.31448782368713557034
-0.78037177039442207072
-0.83526706781951665093
-0.78130283765972108334
-0.43597642834492877917
0.24645843318714455439
0.23906326684313358721
0.21796122663997785640
-0.03330876885336146037
-0.03482706947642960627
-0.00585242173563257570
0.21210135530166598916
-0.73080102052010975644
0.28320347736891682278
0.29093611515691708558
0.31255335520667809623
-0.22382506750000000229
-0.26563680800000000204
-0.26901096901982324283
-0.25633141870388459482
-0.34780888940641896401
-0.05848784016532303232
0.07614640956451886045
0.07153997446719473352
0.04657194992464552125
-0.18911836500000001049
-0.30211831538994771140
-0.29804907521610718435
-0.30406266330141107357
0.11531619974915451043
0.09803452220549874196
0.12347074190905468760
0.32682863861629274371
0.36649259455328420110
0.38244575626228449750
0.39504658694878386216
-0.12860776800000001119
-0.13010846708101941882
-0.10613733973864231119
-0.25273481850000001359
0.42835566687836046373
0.40955390168905314585
0.44871947513425175513
-0.29971942080731550639
0.42402254270467204522
0.44005322678687491811
0.40494907618133002547
0.14758129192848196132
0.17433837177410371755
0.16353729978800907174
-0.14951359600000002636
-0.27847303151982327751
-0.28456093300000001589
-0.28804240531952812754
0.36807525448734562667
-0.29327997718159637408
-0.28517018796466886421
-0.30181196500111145964
-0.29784604665069297491
-0.59558870228640004019
-0.63840948646609874118
-0.59182989604604030465
0.09342808710817462892
-0.94490990239964856023
-0.88999108502195423132
-0.88981980479929723149
-0.54738406397629346678
-0.49677701068032148468
-0.50669703814690625343
-0.83509578759685965110
-0.30350040990356752513
-0.30113029570292021431
-0.30081326424334681180
0.41754990686782939013
-0.29878120308124678228
-0.29381947831952814898
-0.29611507900000000326
0.13942674976858179803
-0.27509887050000003672
0.01756087281294175378
-0.00787394802020985329
0.01958239909751903138
-0.40026185541678471758
-0.44355941931526071675
-0.39267886444645272448
0.04455042364006824018
-0.29943116972972699807
0.29251606894124249081
0.26578966789218805289
0.27318483423619899231
0.30253471207396032128
0.20251383495142216695
0.22947574649288976500
0.21988822614264597055
-0.72002184338936414676
-0.67045109351505183248
-0.65967191638430611178
-0.05838700402668073330
-0.08346523919999999930
-0.08356607533864229831
-0.29033800600000003733
-0.30786071496375133627
-0.34647829421993603383
-0.30919131015023421094
-0.55114287021665320232
0.19171276296532752115
0.37283721792519664007
0.34269528656593739591
0.35697056997555198787
-0.10603650359999999830
-0.62763030933535302047
-0.28991034150599631625
-0.28177160779588544814
-0.29158068709720463829
-0.45347944678184548550
0.37757186233073414261
0.40454319479217237809
0.41403980263556083852
0.46616102090880684461
0.48360256668336198960
0.44579721265291560872
0.46182789673511848161
-0.28347089788027712842
-0.35406128519026802692
-0.30072366358124680286
-0.29999999999999998890
-0.30040663212167340035
-0.29805753950000002384
0.12857408582878884773
0.10005703014799179063
0.12194514278897167214
-0.94490990239964856023
-1.00000000000000000000
-1.00000000000000000000
-0.28855341577202270331
-0.27587755708599859261
-0.26658492620732832101
0.39343851028037873929
-0.83443881710789136186
-0.77971479990545367045
-0.77905782941648538120
0.14605569280839897361
0.42839694648787285391
0.45090026640691838189
0.46174730602696190118
-0.03616100409999999793
-0.03473488647668072915
-0.00930006564352912207
-0.28722282058553982864
-0.71936487290039574649
0.28340374957706482295
0.27429143021288715509
0.25667734852801038503
0.24708982817776656282
-0.29581165729537406417
-0.29081005034740126103
-0.29442956278175425044
-0.05981312164999999514
0.06960172103378836628
0.06766346760038199903
0.04261217020666187294
0.33938956599070085884
0.31595281746597170258
0.32597146059868947754
0.35611339195794877721
0.43789355433126136985
-0.52202321009740471069
-0.53734938204790316796
-0.56646904216715165958
0.09811877671458542338
-0.28859087089348922639
-0.27913266657087126843
-0.28045213718337835829
0.17944137106655982938
0.20761683424387827879
0.19534544234511055927
-0.59851064921610463987
-0.42756702526005641030
-0.46713203170348133186
-0.41391444033842056394
0.48703447278940303899
0.52534947044455437837
0.50447601856395818398
-0.28497135845913623697
0.47905093196476955519
0.50082560191301306318
0.51804863714266424779
0.16195976408694970350
-0.26219153933784022925
-0.27368086365125454673
-0.27198157356686281094
0.48989797158481307449
-0.26438823277258427513
-0.30875503152866023981
-0.35450844347272247870
-0.30830787324620578804
-0.29805753950000002384
-0.29611507900000000326
-0.29846417162167337978
-0.94476688895556315551
-0.88967679135521171574
-0.88953377791112631101
-0.83429580366380584611
-0.48245820365397978913
-0.29346256467370063215
0.43213623633526815349
0.40248672713023236902
0.42308801948541452376
0.01207978200000000071
-0.01204061104999999861
0.01482032740647087725
0.03987162480019099814
-0.72639233491498500506
-0.66669937839889537035
-0.67372684041348462891
-0.36816102839435832506
0.30988653343592242884
0.32725699793060242238
0.30077421407174476098
-0.25787887676383258739
-0.24917282732033690928
-0.27851677114204409502
0.26341504231025908433
0.25253865440763101358
0.23621344027513849206
0.33332328196065164061
0.47589239237907149382
0.44496609750731619393
0.46881984920301666975
0.22394204837637077254
-0.56543699134318936572
-0.61255445386374773875
-0.55139318669554626684
0.37919021168129929400
0.38554320543740200344
0.36246638571405143114
-0.27896392942449854679
-0.27346414280157110843
-0.27214467218906401857
-0.26515667780725676872
0.11439619148769378243
0.09102982954403789073
0.12148513865824131508
-0.61958191587833699732
-0.26367410857254847123
0.54206103049376164194
0.55877259054296890550
0.52118757861316544755
0.40883972088633507846
0.45401431435716982365
0.53841061384281663216
0.17243031752905749188
0.15050220167892316980
0.18388787993708402557
-0.27596463078585253825
-0.28180332267411756231
-0.27279659500083386359
-0.25278806228819555857
-0.25059136885345151269
-0.23899119836906279613
0.49174816614177579988
0.51989883169962691767
0.52174902625658969857
-1.00000000000000000000
-1.00000000000000000000
-0.94476688895556315551
-0.83511743363050627842
-0.77987945938318570249
-0.78070108934988613480
-0.24408201284469985270
0.35640010168400221291
-0.45858852730524579666
-0.49796895467657448231
-0.44307777628265110348
0.14341325450837563715
-0.72721396488168532635
-0.29033800600000003733
-0.28456093300000001589
-0.28768549167370061070
0.49882070931783062395
0.06000770810000000122
0.03604374504999999923
0.06383558785019100013
0.29015419003879572291
0.31663697389765332879
0.30601694986470429072
0.27927780213616765215
-0.38944633810250744999
-0.33004034123680936474
-0.35132565094495848967
-0.51201275932421763670
0.08720194979384689182
-0.27867876400041691198
0.24156935608903212787
0.23060005777043324215
0.21297275005777188683
-0.26138971752249934299
-0.26837771190430659285
-0.25762275723774191727
-0.27270074236793684364
-0.24290964026377520613
-0.23664645320721347521
0.20151518764974535314
-0.26520967611928791818
0.57921786577899159187
0.56250630572978432831
0.59966314101501427825
-0.25502770699052068615
-0.24489873617378463133
-0.25354513775581244417
-0.40495708912510214317
0.59248672639486366087
0.55526768176876395433
0.57562965846891622768
0.48945527021711621174
0.46079575327619215486
0.48267383129809382503
-0.24194496727142372761
0.43860091741612583505
0.44506559849698351661
0.41530440196719276003
-0.57174970479657993838
-0.57806241824997051104
-0.62589462933172756998
0.54364982746549750381
0.54179963290853472291
0.56555062867440519803
0.36006072332529609481
0.34365886062794925859
0.37280196438134904913
-0.94414687923047591056
-0.88891376818603906607
-0.88829375846095182112
-0.83449742390541903347
-0.22705300760888891265
-0.21511481684871505693
-0.23214382208452599698
-0.30211302899130509925
-0.28082771928315597432
-0.25290040703765170882
0.57901867753463442945
-0.72925120908009744003
-0.67576408461189663157
-0.67780132881030874525
0.33303883659500022052
-0.24477343012243257814
0.46726043435704989193
0.53356997972795816576