VARIABLES = "X", "Y", "P", "U", "V", "divergence", "vorticity"
ZONE NODES=7045, ELEMENTS=13692, DATAPACKING=BLOCK,
VARLOCATION=([6]=CELLCENTERED), ZONETYPE=FETRIANGLE
-1.00000000000000000000
-0.95525065058023406195
-1.00000000000000000000
-0.91050130116046812390
-0.95525065058023406195
-1.00000000000000000000
-0.93152615734539589987
-0.86305231469079168871
-0.88677680792562996182
-0.90053347515854431649
-0.89056564915662039805
-0.94528282457831025454
-0.85591090369072186927
-0.83218641045588359617
-0.80132050622097561465
-0.84594307768879795084
-0.94528282457831025454
-1.00000000000000000000
-1.00000000000000000000
-0.79638854394797786718
-0.72972477320516393462
-0.76552263971306977464
-0.82121143966866805286
-0.77658886820084571667
-0.75185723018071570767
-0.88721096387128683958
-0.88385627858595339212
-0.94192813929297669606
-0.81785675438333460541
-0.69912857621051061052
-0.66853237921585739745
-0.73492644271841656156
-0.71019480469828655256
-0.94192813929297669606
-1.00000000000000000000
-1.00000000000000000000
-0.66539924802087702105
-0.60107372283658999645
-0.63480305102622369695
-0.77482348758621988338
-0.82933988308608663775
-0.76334035888346774001
-0.67565265097526994165
-0.63399022549284078654
-0.59944807176982417563
-0.88816919742170630236
-0.94408459871085315118
-0.88601273800382984724
-0.83149634250396309287
-0.71437778354399927849
-0.70289465484124713512
-0.65393207950177867360
-0.62669007563580136910
-0.60326262882067993587
-0.56953330063104634640
-0.53799287842550258532
-0.56872047509766332496
-1.00000000000000000000
-1.00000000000000000000
-0.94408459871085315118
-0.78072211419189063708
-0.83444565580679852523
-0.77777280088905520472
-0.50861903741203118301
-0.54015945961757483307
-0.47924519639855966968
-0.73326483199494330023
-0.67281912795272269534
-0.69170617640366682810
-0.55977885476502908801
-0.52010963776023388938
-0.58702085863100628149
-0.73621414529777873259
-0.50585056801871886023
-0.47370825761193524617
-0.53657816469087971090
-0.94502368376393919291
-0.88910828247479223307
-0.89004736752787827481
-0.83538474085988445594
-0.49690894768608456777
-0.44942688621302862018
-0.41960857602749762618
-0.47880072722650013350
-0.62160373495616472184
-0.58927539041055088109
-0.64049078340710885460
-0.55469251408539244075
-0.44665841681971640842
-0.67516284875558829626
-0.65861952110750965339
-0.71967081764970020075
-0.94502368376393919291
-1.00000000000000000000
-1.00000000000000000000
-0.83495132277851824565
-0.78028869611052442679
-0.77985527802915821649
-0.62394745575903032275
-0.42249740653781064914
-0.36574961667706168411
-0.39267909635227965515
-0.71923739956833387943
-0.44270134829376761587
-0.41169443897559993006
-0.46590203836791688197
-0.39142022435595580365
-0.36323187268441392561
-0.41847006514817458589
-0.53488260093548101182
-0.50029972461032257147
-0.48048981146041119805
-0.94545019073596714421
-0.89047387449990622610
-0.89090038147193417739
-0.38746315583000690008
-0.83537782975054619694
-0.59340864961835415592
-0.55873658426987482528
-0.52819777812919876947
-0.47782451776301820834
-0.42361691837070125644
-0.43553939776580252730
-0.45801460461310683492
-0.36569333937042503013
-0.33876385969520705910
-0.31177810271335237857
-0.33750498769888315209
-0.67411113844350667446
-0.72698320823633244547
-0.66636532977550810841
-0.50434379479480495601
-1.00000000000000000000
-1.00000000000000000000
-0.94545019073596714421
-0.56388681155805553402
-0.61125316633278259371
-0.54604229484362720726
-0.78311882561757750754
-0.83700960354475584246
-0.78148705182336786201
-0.33670991986769549520
-0.31018796705097712030
-0.36094120301328852518
-0.61899897500078115975
-0.72861498203054209100
-0.28609206601984937812
-0.31307782300170405865
-0.26040602932634637767
-0.40406868792803768420
-0.39214620853293635783
-0.37259797809027284110
-0.47065540056709731509
-0.44680141723270350163
-0.41311302300499586071
-0.28686773447517643909
-0.26195736623700044410
-0.31259461946070721261
-0.41299881130804216856
-0.39045822485028180981
-0.43547401815534647618
-0.34139297257062495294
-0.28607266664398878220
-0.94560453892693530076
-0.89105472966290233394
-0.89120907785387060152
-0.83716395173572411004
-0.51189619194766033949
-0.49405167523323201273
-0.45990557233726520048
-0.40178562392763883526
-0.38152810147027732546
-0.57003068655764965733
-0.57617456155724389166
-0.62514285000037528306
-0.43650929767113055835
-0.67764252311299111309
-0.73038067436528431031
-0.67587683077824889377
-0.23638747343878596663
-0.21236891755122555558
-0.26207351013228896708
-0.23716314189411299984
-0.62690854233511750238
-0.34343855705693315805
-0.31223355153728526989
-0.31427913602359347500
-0.94560453892693530076
-1.00000000000000000000
-1.00000000000000000000
-0.26176017673705354039
-0.23764487633006523004
-0.21333238642313001598
-0.35236868043693764241
-0.47754540672369072407
-0.52071610914087318456
-0.46872548953047799003
-0.78243797232971701305
-0.78175711904185651857
-0.83648309844786350453
-0.52685998414046730787
-0.72969982107742381583
-0.36829048077079473700
-0.35696308169343771155
-0.32346793853659361329
-0.37924474040550787413
-0.41957515637138653730
-0.39617888170525183966
-0.21138850823648724919
-0.16237098714662809296
-0.18736995234892683815
-0.27601201576362566215
-0.27396643127731751255
-0.23774489550365790480
-0.22553864096339396039
-0.31887353728009354414
-0.19109466494443294593
-0.16982041233764036403
-0.21588888928732041794
-0.19157639938038517613
-0.57522917054089028888
-0.57428377952453679711
-0.62596315131876401061
-0.88947014381609579292
-0.94473507190804784095
-0.89033961083498325273
-0.36677897996192132535
-0.32195643772772020164
-0.32044493691884673447
-0.83561363142897615575
-0.34984483866217730430
-0.43231130166593034758
-0.42349138447271755803
-0.38707719660816991558
-0.52802062671679939054
-0.47870604930002280675
-0.47986669187635483391
-0.38316096850683889485
-0.66987787941268717162
-0.72581749922727190061
-0.67376020126283919787
-0.52707523570044578776
-0.24778707888350046118
-0.28562750871004705111
-0.28103310745354698197
-0.16574476589025660678
-0.14074580068795788934
-0.11912061422928767185
-0.62208082946861198437
-0.24276598719357916911
-0.14447051328346402488
-0.18741356352251892226
-0.16149474062190780077
-0.19961981806278283891
-0.14236842054961110215
-0.17785040348637054519
-0.15609441644362573309
-1.00000000000000000000
-1.00000000000000000000
-0.94473507190804784095
-0.77444321749229283469
-0.83195668065419425830
-0.77810016826707473214
-0.38748563325291568438
-0.38789406989766145317
-0.43271973831067611638
-0.43388038088700814354
-0.15193158058575945146
-0.28484309965502796480
-0.28635460046390143196
-0.24924126239120925064
-0.72216054845249000316
-0.34474855429052264633
-0.31534865254719207650
-0.31025236817553741853
-0.34866478239185366705
-0.24851417063735486979
-0.09461455701988445710
-0.11623974347855467459
-0.07010849981048124235
-0.47675371582910819335
-0.47364073978186155278
-0.52396225965319920270
-0.20684952226650904494
-0.17595414902936021284
-0.21187061395643033701
-0.61529227819902687635
-0.56749522825495168910
-0.56070667698536658108
-0.16872444482563400681
-0.09927764058824803395
-0.07943466694720839605
-0.12462753964242437310
-0.11090154374840974216
-0.94326510468296687062
-0.88800017659101482259
-0.88653020936593374124
-0.83048671342911328797
-0.51717370838361409469
-0.24330743469792687206
-0.28187618580838680327
-0.24627434854456806135
-0.34632797263771841756
-0.30557874866726697505
-0.34673640928246418635
-0.27677990143673214529
-0.30791555842140216903
-0.43242806703218611419
-0.38644175604283942382
-0.38498944218801739447
-0.64464014741883868265
-0.70954168245556581418
-0.65725901341576298265
-0.11745115035699023320
-0.09253388016436936425
-0.12701431039313859639
-0.42931509098493947363
-0.21448920052299896843
-0.18119132216249747569
-0.21521629227685334929
-0.60267341220210268737
-0.04977127597361008515
-0.02943405213673893142
-0.07427733318301329990
-0.17857273559592884427
-0.05443435954197366200
-0.08598427355578888709
-0.13466808765414808868
-0.10784143468638836272
-0.14189779185787429472
-0.94326510468296687062
-1.00000000000000000000
-1.00000000000000000000
-0.77158233747732696273
-0.76872145746236097974
-0.82762583341414730498
-0.10018765742537885655
-0.34634190061653613579
-0.30518424000133886898
-0.30478973133541076290
-0.70668080244059983119
-0.34488958676171410644
-0.21506280900245960952
-0.18088435561370996840
-0.21209589515581842023
-0.51201176670811465730
-0.46847879810636217091
-0.46331685643086278903
-0.24092532578006778388
-0.23854321686220869569
-0.27439779251887308487
-0.27206098276473783537
-0.18103783888810370817
-0.38385460095004309000
-0.38271975971206884104
-0.42818024974696522467
-0.02613084670540153504
0.01784680639967816881
-0.00579362286853038130
-0.54749299479646607036
-0.53427931260756555965
-0.58945973001320206563
-0.11691830980640136040
-0.14905481598444941804
-0.14643622941788078662
-0.11237987224639486850
-0.05139782490991670616
-0.02336098287262501627
-0.05794743151849719026
-0.42301830807146578728
-0.00960522013640260908
0.01022361186393371327
-0.03460552754163734313
-0.49879808451921414658
-0.88377482461549727866
-0.94188741230774863933
-0.88515251699071550995
-0.82624814103892907369
-0.18301315267725315472
-0.21316029368759001339
-0.18194875414548156156
-0.27354067199266468569
-0.27393518065859279176
-0.24229161264991863622
-0.21077818476973092521
-0.06821440418795422789
-0.04389492821153908458
-0.07586818144896372018
-0.00656868550434565150
-0.24041741475606365208
-0.31073340795297976769
-0.34786142507049855332
-0.30776156964419526529
-0.64920403289953165782
-0.65376791838022463299
-0.71124468792129280637
-0.34672658383252430436
-0.15209330224944284105
-0.12299528233638822028
-0.15193981897504910128
-0.03362795554208204696
-0.53958700766563882922
-0.54489470272371209880
-0.59476742507127533521
-0.11995679607139478340
0.01352423043478087096
0.03716465970298941934
0.05648251300630067334
0.03335306243511719504
-0.08203894046673067264
-0.05623644624707297562
-0.08657737802673716454
-0.59933131055196842141
-0.38352335298201067904
-0.42342010470643676179
-0.38312155634703976004
-0.94188741230774863933
-1.00000000000000000000
-1.00000000000000000000
-0.05006568722930603010
-0.49529276681126899184
-0.45981153872291763429
-0.45630622101497247955
-0.76485634406593416834
-0.82431558434071572350
-0.76678890076414751853
-0.25854471449504751179
-0.28166722291522916510
-0.25041816357248308789
-0.15749102959125638179
-0.13409770356880282294
-0.15855542812302797495
-0.70931213122307945618
-0.28463906122401361198
-0.21702672177115739371
-0.18926168967867962323
-0.19551022668010609173
-0.21890091966501235010
-0.12854649295259551467
0.01086763006592229852
0.02765992743420166156
0.04509624300446961331
-0.41991478699849160705
-0.50060046186934226142
-0.35209963007729871975
-0.31610645419775418308
-0.32147950044252865398
-0.01267255603101336177
-0.00240558336155632761
0.01854981614951236105
-0.35250142671226969426
0.07955406735468018020
0.06023621405136892620
0.10262562170305968012
-0.06798540989060981865
-0.09549034611349901946
-0.09245185984850559646
-0.06211092806884140061
0.07063219280171888215
0.08478187259713708401
0.04750274223053539691
-0.94015440947382677983
-0.88204182178157541916
-0.88030881894765355966
0.03182302957699098545
-0.82258258150679386400
-0.02838810738432333627
-0.02221734836655639075
-0.00053976852157369551
-0.54560892080684553207
-0.54632313888997907636
-0.60004552863510185468
0.06493905780080334866
-0.16894500685078703284
-0.14448728229656188082
-0.15487686102432091095
-0.17519354385221350134
-0.23951760209113898137
-0.23139105116857455746
-0.22049048968723045094
-0.20800035818366827134
-0.64958160461152858467
-0.70721897433873137651
-0.65167476149587666434
0.00900502381396933206
-0.29524316421775531616
-0.26914881748878916046
-0.27975292048253086463
-0.43738794116315105054
-0.49114132194343157467
-0.44684708108906179280
-0.30061621046252973155
-0.08862315091437139580
-0.11136042724158710937
-0.10580921662537981498
-0.42201319959173094754
-0.38562176557525007503
-0.38772017816848941552
-0.59795237175075377500
-0.07830428040249060029
0.12468984899596519123
0.14675407628887068845
0.10161829464758567743
-0.33436365367551440508
-0.35894350332876256982
-0.32792157705902152953
-0.49185554002656506345
0.11576797444300387929
-0.03339488412146165985
-0.01055332199585033714
-0.03926936594323007790
-0.00554654525871201617
-0.94015440947382677983
-1.00000000000000000000
-1.00000000000000000000
-0.74929262662087670055
-0.81480072278426507459
-0.75707448534340548996
0.06249246374406183108
0.07988868448365404884
0.04921925031658320321
-0.41255405966582026078
-0.36104191592200191030
-0.69943711561620269812
0.09919604762481870619
0.07214614531464416669
0.09198896011097790204
-0.12553283573199980339
-0.11696796789519675608
-0.13592241445975883352
-0.25383729486771383632
-0.25619100468138067406
-0.23716389227747214363
-0.16952723756895710094
-0.18417761411359331869
-0.18984392039684971909
-0.26679510767512237823
-0.20233405190041187094
-0.10279555940478407594
0.03702511255390057709
0.05550040895828879661
0.02748032021835754984
-0.28896690528941137988
-0.29818089009629195063
-0.30983019526941030231
0.08954236605423637751
-0.31627227188590317786
-0.06650099521569918792
-0.05618212470381840629
-0.04437883951702698698
0.14446184641841594565
0.18629807113377219729
0.16652607371132144287
-0.54746182110582064517
-0.59852171285867461492
-0.54689247999789980526
0.06769454672097141579
-0.02746608075643866206
0.14658537829476792069
0.14641668030066518069
0.11559927644890113929
-0.49861017549379410552
-0.44414257663038009261
-0.45089721209760913467
-0.94098553160145881336
-0.88113994107528559319
-0.88197106320291762671
0.12280636396274194344
-0.81563184491189710812
0.01583271468017619435
0.03220519788192608562
0.01082593794303787424
-0.37038735967539376803
-0.35305454118229812055
-0.39522124117272461330
0.04385280342010744459
-0.34370909742890626282
-0.63246443181494882424
-0.69087852921791270688
-0.64102301821323870445
-0.15169381646328633506
-0.13273936989872425762
-0.14851077190225173141
-0.49917951660171488992
-0.16634419300792252505
-0.24597728374950939001
-0.22930388115926769732
-0.23811727263130494370
-0.19732694389529389922
-0.21047627367699447976
-0.21548338168211245147
-0.26485558077993776038
-0.27587386669216162893
-0.27781339358734624678
-0.58996312646038473471
-0.08116568249011345271
-0.09906682519265511133
-0.08489441670224243119
-0.28702737839422676203
-0.06277226100357022331
0.11858248520764191891
0.13796892279046513163
0.10892880363705959024
-0.22429677315414969785
-0.31445280905973149732
-0.32440823136762297896
-0.30631684957801175173
0.21047402192991165881
0.23464997272605114809
0.19070202450746093215
-0.37096031465111012349
-0.41092876337435962908
-0.40417412790713058701
-0.00360499067968277076
-0.02399191509835487887
-0.00707915633776655395
-0.36200742791670414977
0.17884239042776281514
0.21093070456665494183
0.17867369243366004739
0.09970878078604629435
0.11952887708843853987
0.08751464302336367518
0.14219280154556515616
-0.33375367512101483669
-1.00000000000000000000
-1.00000000000000000000
-0.94098553160145881336
0.03372986563716494357
0.03525453339240380152
0.01235060569827673219
-0.77256299337111078440
-0.82726702828701426107
-0.76092780999599374248
0.22279033864635305884
-0.65947883351838287869
-0.70438573006962978962
-0.64597163266666579595
0.12874889993945182187
-0.11606763326927282964
-0.11516729864334890321
-0.13183903527280033119
0.07546818456986324752
0.05383669122589467004
0.06548429676407602207
0.01582477135636051538
-0.25992697424881339163
-0.25206696313060894532
-0.26601665362991300245
-0.09816649056673118490
-0.18544654153867190516
-0.16761312043300108376
-0.18671546896375046387
-0.45704725624838071774
-0.50225453867710068145
-0.45397223417299492620
-0.27094526016103731569
-0.19859587132037248569
-0.71602091344474683154
-0.59365657103740310241
-0.55115526568283901288
-0.55484871025985738058
-0.28248456486875295202
-0.28909526304534433061
-0.29363807657081814062
0.09749853082915088676
-0.04399929991809154589
-0.04361976031915610480
-0.06239272140463478222
-0.30177403605253794172
0.25133919534603388346
0.22716324454989439419
0.26802841796601661883
-0.02361237549941943778
0.17184815483077148235
0.19727962936087775625
0.16762427607567143006
0.05536135898113352105
0.20410516696376634904
-0.41291554293160959155
-0.37294709420836014147
-0.37493387376561010393
-0.21845246430594700282
-0.22642865493489952589
-0.23227296378310224867
-0.34120033160800067318
-0.32189946554671738932
-0.32934612203370328132
-0.35015321834240670240
-0.50594798325411904916
-0.60716377188912007412
-0.94379374194111620433
-0.88477927354257501769
-0.88758748388223240866
-0.83007523862667165204
-0.41599056500699538308
-0.27755595833762869429
-0.14254595796079419512
-0.14552836493152296327
-0.12885662830207156304
0.16070045040325731112
0.18343197801604949060
0.15148042755224400135
-0.20657206194932498100
-0.16463071346227231562
0.25735482577659035686
0.28005967882712956563
0.24549519169689226761
-0.24737085941375613896
-0.25662444619620733421
-0.26132054991306019609
-0.08630139319347138183
-0.09143710389682929707
-0.10330220127008910014
0.03096693194397501236
0.01368097063214612080
0.03311073266818941041
-0.06752843210799269746
0.19035580368846360955
-0.24152655056555344393
-0.30874461443641409986
-0.29606584142922054426
-0.30303641981309675790
0.12035596420413488539
0.12118305131983124479
0.09832561794484724615
-0.67499315724934216831
-0.72377807531022653187
-0.66723599538386246799
0.07515094558776030942
0.07483370660565738519
0.05504411999903059682
0.28954509669652728210
0.31106177542703788985
0.27285587407654454672
-0.00863830792235044040
-0.02612903412075327086
-0.00612164930101660558
-0.31406455148111467324
-0.31367629390249790466
-0.32151120796810062075
-0.32994623147551921383
-0.35244005262056465888
-0.35045327306331464090
0.29556072712708369998
-0.32964617675461127533
0.23575946453218793453
0.26058822449772089946
0.22893392692929931398
-0.11699153092881174609
-0.57055006810690989116
-0.61501445081264638493
-0.56269938918338358036
-0.30835635685779733128
0.01116431201081228598
-0.27369627737772184162
-0.28137590112553073629
-0.28523558208543753345
0.27032395166242523254
0.05290031927481619878
-0.94379374194111620433
-1.00000000000000000000
-1.00000000000000000000
-0.46195445135426993488
-0.46686164646015909652
-0.51085517836000826630
0.17749493928786197472
0.17155790055967445884
0.14554338882405648548
-0.83407839421175133943
-0.77656614895619058281
-0.78056930454127038121
0.09800837896274430805
-0.20089671164869429831
-0.21507795433363813276
-0.22075330463426884320
-0.26900017366086903525
0.14637047593975285875
-0.62277161267812597423
-0.41645264496362066620
-0.37539595372223538705
-0.37585803367886067017
-0.15963108249051025100
-0.17671620702022630689
-0.18171583799198837150
-0.72778123089530621925
-0.29220616046931374710
0.21429391173101108858
0.22121773740342520753
0.24515584544597268657
-0.04306088778649529158
-0.04250201525383447143
-0.06696955957533187731
-0.51870585728353446608
-0.25216641038818987663
-0.23706851475753598635
-0.24770837458017244681
-0.02557016158809245765
-0.42135984006950988334
-0.13287362829649249085
-0.13770979312864334299
-0.11215536609666089396
0.30802913416451055406
0.34802985036300448929
0.32954581289502116181
-0.19589708067693223370
0.25287203497184679302
-0.32234932207662925219
-0.34864159792111970582
-0.32614777677607420525
-0.31364936933882314740
-0.32149774568626321436
-0.31366283162066055379
-0.32179780040717120837
0.31371651227747454627
0.32921756057742873613
0.34737334572781958242
-0.23139316445690527591
0.07042103299974031283
0.06600835939382322659
0.04848764566889911948
-0.34910367787774498893
-0.94467435820755563114
-0.88846810014867183547
-0.88934871641511126228
-0.15479491765835939887
0.01245139356064007240
0.00190654281914481600
0.02170916275230754325
0.11670910229604949948
0.11223515327226775418
0.09353442993896257662
-0.83495901047819076624
0.28801429290624047663
0.29775002007094480971
0.31544036131476005380
-0.30567391251802056296
-0.30831140522294431250
-0.31099384956272113634
-0.26485400980416651251
-0.27308357341212569080
-0.27722973726882821355
0.20539784081541084815
0.22736370361477220570
0.19946080208722333227
-0.29230659616360266106
-0.29767150798834973724
-0.28684124864456672643
-0.57752163400762657197
-0.58449319990834325278
-0.62974317857884276606
0.23625977453037244613
-0.26039597399614905493
0.16178146726971762148
0.14148225929477442619
0.16666968391469605404
0.33140685352128984587
-0.01502531084659719865
0.03922987647723164689
-0.72968391756291728356
-0.67689584391695323262
-0.67879853058456418591
-0.08586752997408313159
-0.08865231693545622127
-0.06418477261395880151
-0.10937057913528780428
0.08912175633304549038
-0.52642759036892539104
-0.47458337954554996596
-0.48230511263094083541
-0.31098038728088372995
0.34856434013859027843
0.36704837760657360590
0.38606690485014266701
0.13700831027099269477
0.31673755583534918268
0.28094670064066096238
0.28866289016653501331
0.36672012528898112471
-0.38226395581989780492
-0.42456280114002842296
-0.37906099474937926530
-0.31370917622211574871
-0.31750763092156075729
-0.30506903036760224524
-0.30935919985321269632
-0.63164586524645371934
-0.30268748278175627853
-0.30233854575041574364
-0.30532497548668002807
-0.28269508478786420369
-0.20781730600000000719
-0.21144763016681905610
-0.19226675651011315704
-0.29732257095700920235
0.31608895857505459048
-0.22745539166681905119
-0.23983282899999999738
-0.24377060179008622209
-0.53339915626964207185
-1.00000000000000000000
-1.00000000000000000000
-0.94467435820755563114
-0.15164652614824625232
-0.17041942400000001379
-0.17356781551011316034
-0.31308611540682024232
-0.34447207454284045625
-0.31771771874172471950
-0.77880821940793387714
-0.83407846791152251420
-0.77968876197460212918
-0.43228453422541934792
0.22021161201475536462
0.21305952041473855130
0.19230871048720649119
-0.03669278181212230067
-0.03959739853297838952
-0.01212069412574111327
0.18742049384222808639
-0.72880337499624903153
0.25645377300399552212
0.26534984391959570704
0.28554384239321878303
-0.22382506750000000229
-0.26563680800000000204
-0.26936019070606287418
-0.25667259129008623830
-0.34767503561335899587
-0.06128015589310271960
0.06365625448896344851
0.06130414958410368431
0.03687777157237187575
-0.18911836500000001049
-0.30412973720210556561
-0.29994806918126681872
-0.30679871926004498306
0.10023737404007566909
0.08312286671694944784
0.10623626365617171163
0.30114069911428398285
0.34372096819740927121
0.35968746040393906327
0.37200157508005854412
-0.12860776800000001119
-0.13074069814824623714
-0.10723764898704157833
-0.25273481850000001359
0.40698353369388273748
0.38796500645031362087
0.42790016253762280796
-0.30250854977443453198
0.40231881925634493946
0.41857073366254726743
0.38297203969518345268
0.12877005735971355782
0.15354321435843848453
0.14530496144715937534
-0.14951359600000002636
-0.27882225320606285335
-0.28456093300000001589
-0.28843376458180136623
0.34436956545770386340
-0.29712767020042646360
-0.28918631003325068196
-0.30576781605493996707
-0.30113621272003543439
-0.59249614457446675431
-0.63564733757951552562
-0.58849467224140505905
0.08077076181208966976
-0.94452444682373482010
-0.88919880503129045124
-0.88904889364746952918
-0.54354592612823027231
-0.49245188248952909138
-0.50259865234811740287
-0.83392855652770170316
-0.30499407363021341366
-0.30200764389394912923
-0.30167674203748251482
0.39528615437130287802
-0.29922681237520787345
-0.29421083758180133216
-0.29611507900000000326
0.12277116774361751528
-0.27509887050000003672
0.01296026988818421537
-0.01186625596196904178
0.01270583172441214388
-0.39656997600552135186
-0.43943754431823112139
-0.38941696591270957839
0.03713220973614395071
-0.30081240560937466677
0.26521755397414048527
0.23913853719443950441
0.24629062879445634549
0.27538069818367960639
0.17998366549752281562
0.20562269207003328053
0.19818586372532800977
-0.71814172602023762515
-0.66813688160855266851
-0.65747523263254126213
-0.06007901050606115345
-0.08346523919999999930
-0.08466638458704156545
-0.29033800600000003733
-0.30856050971438259145
-0.34541223276714017043
-0.31082331256060141689
-0.54754739846129207859
0.17174541258624370643
0.34567331497833897469
0.31560857868577885110
0.33120543540684410644
-0.10603650359999999830
-0.62498568860350400822
-0.29215108827118774215
-0.28435410736110866559
-0.29471156886435545541
-0.44958431417681937736
0.35314881835511202635
0.38078082797746670707
0.38956008087487492553
0.44598893505922959646
0.46407770758083638496
0.42507230621548952598
0.44132422062169185395
-0.28677020869717967377
-0.35256524285995194390
-0.30116927287520789402
-0.29999999999999998890
-0.30083837101874122411
-0.29805753950000002384
0.11688502189074628790
0.08909458573742498610
0.10856119796541097156
-0.94452444682373482010
-1.00000000000000000000
-1.00000000000000000000
-0.29192688084077267341
-0.27997697815398786547
-0.27076764627472504898
0.36761669792660695011
-0.83336632389519005315
-0.77824598677542222713
-0.77768375414291057712
0.13109499166895283162
0.40607310268825275168
0.42935768197949708558
0.44014463029644695924
-0.03616100409999999793
-0.03642689295606114930
-0.01160036710590789041
-0.28966407799455384797
-0.71757949338772597514
0.25775768217394257054
0.25029781037374471131
0.23167866539424164518
0.22424183704953637442
-0.29654997676792804739
-0.29142321149837363548
-0.29568564033982025485
-0.05981312164999999514
0.06180847538161490795
0.06231280117912613159
0.03763653553365517435
0.31199975858802614370
0.28860865628108334224
0.29877180049062246336
0.32883653678318258695
0.41485235558566091463
-0.51845229631691103211
-0.53430594028570466136
-0.56340104243008570784
0.08959891153493620974
-0.29018466886772287250
-0.28042126855417892628
-0.28238768795764379593
0.16237435495655871964
0.18881480609564302298
0.17944374846595803619
-0.59589058645912296175
-0.42404045636987419687
-0.46331955435899579987
-0.41030521618769777437
0.46797802225132667520
0.50805588196503048692
0.48606679477293346370
-0.28592224002627630863
0.45942582651200442045
0.48217931347114895146
0.50028091936146157348
0.14816438517835217592
-0.26516256546929012350
-0.27717443775127037497
-0.27475833641519942230
0.47021277482895429412
-0.26796510587200761400
-0.30807063373934973072
-0.35232030487243554129
-0.30831557172686618884
-0.29805753950000002384
-0.29611507900000000326
-0.29889591051874125904
-0.94441821868549213903
-0.88894266550922695913
-0.88883643737098427806
-0.83326009575694737208
-0.47917319832778942912
-0.29376914524918684712
0.40652881317037842246
0.37610106407435872633
0.39804444702262664624
0.01207978200000000071
-0.01204061104999999861
0.01252002594409210717
0.03719629158956306442
-0.72491702702018900872
-0.66481276626500440674
-0.67215029989746755135
-0.36605554505461196380
0.28380280426112258763
0.30238805454810474549
0.27634293246092472840
-0.26195436915308423220
-0.25314109203144335991
-0.28085080087291297568
0.24204008716539587853
0.23378236395704707351
0.21598411384118754164
0.30719390656806544460
0.45344508273718842073
0.42150258180603167313
0.44679485651681771774
0.20661305621150255485
-0.56347054785434791402
-0.61047289024344464359
-0.54888824407002623218
0.35282995514498510792
0.35998659531163124115
0.33599317694982866467
-0.28060586288539657307
-0.27570694128440365045
-0.27374052188093878080
-0.26705977520769863531
0.10936653977271186544
0.08583967047591900545
0.11312578083172908361
-0.61781042387590767717
-0.26611117033849440716
0.52582726882188379758
0.54359865567873710823
0.50383818162978677435
0.38325770424100480405
0.42998694795378344935
0.52193978752009928535
0.16272564474251907662
0.13980533331663269614
0.17108469660423855641
-0.27685624942048769892
-0.28235722089258502576
-0.27329123028679641605
-0.25653829606242994910
-0.25373575565971245860
-0.24230894585013479370
0.47176283796420148686
0.50183098249670876623
0.50338104563195595897
-1.00000000000000000000
-1.00000000000000000000
-0.94441821868549213903
-0.83420181760015532646
-0.77862547598611853150
-0.77956719782932648588
-0.24772501894078907680
0.33118732492986802107
-0.45633651444900802385
-0.49532122736735634261
-0.44018848540944111036
0.13604609225761546409
-0.72585874886339696310
-0.29033800600000003733
-0.28456093300000001589
-0.28799207224918682568
0.47841306418457218985
0.06000770810000000122
0.03604374504999999923
0.06116025463956306640
0.26807029828337530786
0.29411542037055532495
0.28584278619300590440
0.25981257507502647508
-0.38691952591407852147
-0.32893461459881634390
-0.34979859545828290157
-0.50990353115167796894
0.08468712393635594027
-0.27892608164339821597
0.22568528013567473733
0.21758819631430240116
0.19851597239013021867
-0.26289759397037815170
-0.26957834064361829718
-0.25873541273305761257
-0.27427049676200676576
-0.24680572590805358035
-0.24047035978466380080
0.19015692052841073889
-0.26601332150992701431
0.56550271489691761317
0.54773132804006441354
0.58740677411509822914
-0.25693126277757089015
-0.24680275034744314500
-0.25598265790836660649
-0.40306755495364543496
0.57943610553098212623
0.53985851244622184986
0.56151738060485967274
0.46755834133955526122
0.43704357725496684184
0.46050171203837186873
-0.24455584809878896935
0.41474825904131790155
0.42296770491225738065
0.39147715011194428314
-0.57020428630127906189
-0.57693802474821020976
-0.62454416232283893606
0.52696039274096517779
0.52541032960571798505
0.55053973984997450764
0.33957119589509021651
0.32097962522159750876
0.34977889560336072883
-0.94384700069962768065
-0.88826521938511981968
-0.88769400139925536131
-0.83363059961429097910
-0.23083779667512455136
-0.21936664750011428127
-0.23625386976577883447
-0.30239808141910062833
-0.28153410055963401515
-0.25499756737991835509
0.56498792269047837244
-0.72812579272958322107
-0.67441734376365380932
-0.67668438762983995627
0.31270699104404808821
-0.24773396358229107794
0.44526302312590632093