VARIABLES = "X", "Y", "P", "U", "V", "divergence", "vorticity"
ZONE NODES=7045, ELEMENTS=13692, DATAPACKING=BLOCK,
VARLOCATION=([6]=CELLCENTERED), ZONETYPE=FETRIANGLE
-1.00000000000000000000
-0.95633332613303267955
-1.00000000000000000000
-0.91266665226606524808
-0.95633332613303267955
-1.00000000000000000000
-0.93313838708829111024
-0.86627677417658222048
-0.88947171322132367877
-0.90306431719162572058
-0.89346198211718630411
-0.94673099105859315205
-0.85942017021737959759
-0.83622523117263813930
-0.80617368816869394710
-0.84981783514294018111
-0.94673099105859315205
-1.00000000000000000000
-1.00000000000000000000
-0.80114817468993326788
-0.73601957520328431528
-0.77109663168598907568
-0.82606000058625539406
-0.78241585361200916005
-0.75865801905532448401
-0.89037981791305953472
-0.88729765370893265430
-0.94364882685446627164
-0.82297783638212851365
-0.70624916035705764816
-0.67647874551083098105
-0.74132621683976251958
-0.71756838228307773253
-0.94364882685446627164
-1.00000000000000000000
-1.00000000000000000000
-0.67300018849128151466
-0.60998080177927871404
-0.64322977364505484754
-0.78163366885673635220
-0.83446566128283450325
-0.77014584395603047362
-0.68417992142134431699
-0.64309028464909756551
-0.60970182378736414996
-0.89166947184609457455
-0.94583473592304723176
-0.88948356277751361443
-0.83665157035141546338
-0.72272557812780169328
-0.71123775322709570368
-0.66381748739886703436
-0.63675965559311564768
-0.61241785986341823467
-0.57916888799764210116
-0.54835697421600548829
-0.57902939900168481913
-1.00000000000000000000
-1.00000000000000000000
-0.94583473592304723176
-0.78755408604639187686
-0.83961177894624317020
-0.78459387745156417004
-0.51916185172344642140
-0.54997376550508303428
-0.48996672923088741003
-0.74131426838274339097
-0.68240617765380884308
-0.70099486790875054076
-0.57120628443135801344
-0.53271074507535187692
-0.59826411623710940013
-0.74427447697757120881
-0.51711256635248559199
-0.48586815848896580672
-0.54778499113816492283
-0.94676057918648259815
-0.89259531510952982991
-0.89352115837296519629
-0.84053762220967853658
-0.50928945178215889733
-0.46056034452428140646
-0.43115395981767540290
-0.48975546701684047335
-0.63243834061342696362
-0.60105919382798689288
-0.65102703086836877233
-0.56688496945166932939
-0.45851105915332057705
-0.68503795018120294813
-0.66908103245365524447
-0.72831755925002350516
-0.94676057918648259815
-1.00000000000000000000
-1.00000000000000000000
-0.84014035270614839668
-0.78715681654286173696
-0.78675954703933170808
-0.63507011314082106868
-0.43350672773305343188
-0.37704672623521939823
-0.40410034302644737281
-0.72792028974649347628
-0.45548590524142607006
-0.42510365199388627788
-0.47890719853461904965
-0.40339220972729639136
-0.37563045963691732432
-0.43074930906294156552
-0.54765375525970971804
-0.51347953088339215455
-0.49424831669143254320
-0.94715324707404957572
-0.89391382626053217386
-0.89430649414809904041
-0.40036705581540177334
-0.84053302059371537425
-0.60546097606223669985
-0.57145005674940252405
-0.54184091967081804420
-0.49103293935563718797
-0.43722939281490436070
-0.44935513363592249902
-0.47180172516367752111
-0.37710138758889621968
-0.35004777079766818959
-0.32304881536011698095
-0.34933963749851715264
-0.68430630219216981303
-0.73553292461575070504
-0.67669366732291247324
-0.51804461818112534921
-1.00000000000000000000
-1.00000000000000000000
-0.94715324707404957572
-0.57732694910577730951
-0.62320399077971622148
-0.55958393438829767685
-0.78982909421679547979
-0.84206779418244726010
-0.78829432062806359394
-0.34945852319753650805
-0.32328658675815569179
-0.37419511937602101259
-0.63081662564897356127
-0.73706769820448259090
-0.29689819038816012142
-0.32389714582571133006
-0.27074756541620326189
-0.41794873630207696191
-0.40582299548105882359
-0.38654233896823136929
-0.48526357846192202938
-0.46146727697222927889
-0.42868623725302601457
-0.29816481101898706374
-0.27328080667785720204
-0.32445563315738723542
-0.42719841932953195318
-0.40504170502314140734
-0.44964501085728697527
-0.35491446286319350278
-0.29828369671800647467
-0.94724880727664606539
-0.89440205435069553008
-0.89449761455329201976
-0.84216335438504374977
-0.52659183287850486188
-0.50884881816102534025
-0.47585671665123252527
-0.41686397113808371095
-0.39579202199568641607
-0.58346669694138031392
-0.58960644477698331833
-0.63695637348457656568
-0.45227147695212926992
-0.68757749417739466580
-0.73870329419709501728
-0.68594189818478223941
-0.24634160862395448888
-0.22193565183170571586
-0.27249223359591134841
-0.24760822925478145895
-0.63859196947718899207
-0.35747144575408873468
-0.32584356964905092369
-0.32840055253994615558
-0.94724880727664606539
-1.00000000000000000000
-1.00000000000000000000
-0.27390069334217181929
-0.24889780330202257441
-0.22451479992618794679
-0.36672112878154378146
-0.49399417998460709578
-0.53566056454519217489
-0.48492544831791983828
-0.78902539755421541301
-0.78822170089163545725
-0.84135965772246379402
-0.54180031238079517930
-0.73789959753451506153
-0.38368227186765230252
-0.37186000575270999891
-0.33867830648227859047
-0.39631352156484406235
-0.43608511910803826606
-0.41249987940893506622
-0.22058394866405600654
-0.17042033191190872343
-0.19617799187180723353
-0.28941501434329341969
-0.28685803145239818779
-0.25042947614664068379
-0.23747213803641431529
-0.33353942951111237303
-0.20036880413348362451
-0.17880195643526153315
-0.22604138155655936759
-0.20165837818072473997
-0.58845000214618603529
-0.58729355951538864122
-0.63743552684639159800
-0.89261021183975020055
-0.94630510591987504476
-0.89355391319652111015
-0.38274979705049622103
-0.33774583166512250898
-0.33681335684796642749
-0.84041595636569277339
-0.36656343920640521716
-0.44940195614941452762
-0.44033322448272727012
-0.40480973231422195946
-0.54280311786125934326
-0.49499698546507120422
-0.49599979094553525716
-0.40056162693953301090
-0.67937240624712036396
-0.73379705356937785510
-0.68347495021225745937
-0.54164667523046194919
-0.26145415012024653123
-0.30006622830126256085
-0.29492735133009634341
-0.17397790931849060891
-0.14822024935859209882
-0.12602016680527547421
-0.63333298288125450259
-0.25594181313344360751
-0.15241106162026851756
-0.19820228497062097883
-0.17188977001505398312
-0.21115962308084734733
-0.15115098935959228599
-0.18783289464289010251
-0.16497647289742689569
-1.00000000000000000000
-1.00000000000000000000
-0.94630510591987504476
-0.78055509102068576510
-0.83658265143021792731
-0.78438839595616061118
-0.40483626883817863673
-0.40486280536213531400
-0.44942849267337120489
-0.45043129815383531334
-0.16152037968732313455
-0.30001819081439373704
-0.30095066563154981854
-0.26322302478082104660
-0.72996374863390300902
-0.36124908390280952020
-0.33149900154437067501
-0.32618464624077492253
-0.36549718927749841324
-0.26233858745053378891
-0.10075460692488094616
-0.12295468947819757077
-0.07548904704448641811
-0.49207654250016996667
-0.48815329405480462066
-0.53772342678509665870
-0.21885901101461219254
-0.18728854588258370129
-0.22437134800141511626
-0.62601720678957106792
-0.57997778342370520654
-0.57266200733202177187
-0.17958915794881885608
-0.10582116596095711425
-0.08562216511663874041
-0.13221206077595012984
-0.11838657723811552014
-0.94471271142955848266
-0.89101781734943363844
-0.88942542285911696531
-0.83499025693990136521
-0.53040765069341322402
-0.25540912571875251658
-0.29611124128335947203
-0.25931607524978678159
-0.36188638086431357266
-0.31896302941440524137
-0.36191291738827024993
-0.29079688597976371955
-0.32257383782759008195
-0.44755569314024301608
-0.40198720034854301675
-0.39911159533495071949
-0.65349753186422210316
-0.71702631144245398964
-0.66643496905567123356
-0.12564872861125561676
-0.10014646786291896141
-0.13601811893898646533
-0.44363244469487767008
-0.22665374337804050642
-0.19185333663583445385
-0.22753818070832776410
-0.61307976959812193751
-0.05462286491511623987
-0.03375668278574606163
-0.07988842479551076792
-0.18957094125920909145
-0.05968942395119240102
-0.09288431648977885091
-0.14408201177518265013
-0.11627425353531130325
-0.15178139970894749533
-0.94471271142955848266
-1.00000000000000000000
-1.00000000000000000000
-0.77738708336555095713
-0.77421907571041614915
-0.83182224928476655723
-0.10821036069911513233
-0.35903890576725133732
-0.31608901779338627325
-0.31321500617236736064
-0.71385830378731918167
-0.35616330075365904007
-0.22573655643248102809
-0.18825008808414098183
-0.22182960690144676308
-0.52397819948502966092
-0.48172384284642100205
-0.47529439163803743895
-0.25072249863351930843
-0.24603587154828612804
-0.28611025889453051141
-0.28249945048134567083
-0.19005171235998771784
-0.39592771961702855066
-0.39274384389910643733
-0.44044856897695550124
-0.03029393577278301913
0.01490117549892038332
-0.00942775364341283915
-0.55885395955374272958
-0.54504591177546368730
-0.59927172181984289523
-0.12388606531358499485
-0.15786970097470973129
-0.15558730559808434113
-0.12008015942444814905
-0.05696760139573781023
-0.02831303767483688699
-0.06422975276887792073
-0.43401911776857193814
-0.01342436020684878266
0.00690796237204849544
-0.03935710137229512379
-0.51017015170675050761
-0.88637215809781433329
-0.94318607904890716664
-0.88789879047846564930
-0.83029561690411524122
-0.18515034602755370274
-0.22027973587315310966
-0.18670021705584732841
-0.27836577641092385971
-0.28123978803194277232
-0.24351654664948033102
-0.21559310878791992927
-0.07468889924418133097
-0.04923133062544370053
-0.08275279208037750189
-0.01070253765139419534
-0.24477620909888322953
-0.31347242648484480165
-0.35629201090989776057
-0.31334371632860608115
-0.65740823282172056174
-0.66131893377921913135
-0.71776900474481764025
-0.35310813519197559174
-0.15885269369662097239
-0.12585205075740749092
-0.15705106942077423637
-0.03877218415014029029
-0.54969865725191335848
-0.55435140272836314068
-0.60392446729629267743
-0.12486905803549624983
0.01038146867627292788
0.03471039781860615209
0.05451962013829191739
0.03071379125517020511
-0.08791350951245481549
-0.05955276548959833466
-0.09171941540159166129
-0.60783516825379113602
-0.38966848053050689993
-0.43248143608427214168
-0.39120616221480664088
-0.94318607904890716664
-1.00000000000000000000
-1.00000000000000000000
-0.05439204805752101413
-0.50531657021446330091
-0.47044081014575017674
-0.46558722865346291453
-0.76983516683747643672
-0.82810366246764544051
-0.77202712127394623742
-0.25487694620647999288
-0.28404597618942367676
-0.24919674642798017583
-0.16027676779372412863
-0.13230344750330730319
-0.15872689676543050297
-0.71557705030834783955
-0.28417468634566239727
-0.21965270732106040308
-0.18920994456069420431
-0.19326954309383470587
-0.21839304487165750457
-0.12907774913035741093
0.00726493851401330618
0.02487543853745599609
0.04284291470286349934
-0.42762785459198493498
-0.50996931569091308312
-0.35619283240745097663
-0.31655712370032018654
-0.31964182091579551592
-0.01654086014724939768
-0.00608171367194599091
0.01614961033094490517
-0.35465515072315123568
0.07798233134869535232
0.05817310902900958008
0.10144504255909878032
-0.06704212771877951504
-0.09644708923809350298
-0.09546409651618226189
-0.06329744660418892832
0.06911135422929541583
0.08370308832029892121
0.04530552534617370702
-0.94134465495996844098
-0.88453073400887549660
-0.88268930991993677093
0.02949626251690420226
-0.82626223837870660383
-0.03032311107859721883
-0.02516239364651990176
-0.00109345666759610083
-0.55470586362477092290
-0.55506032452117870513
-0.60818962915019891824
0.06327300151158121722
-0.16844930573226737924
-0.14202585647014417947
-0.15174826543698105574
-0.17250890426540788081
-0.23588060047566067334
-0.23020040069716082853
-0.21688425474484132605
-0.20507689891933800208
-0.65676305291633663153
-0.71329910987690658963
-0.65904099334777788144
0.00752807683167440195
-0.29369064435347852493
-0.26439290421429612055
-0.27390886222211224821
-0.44447714084357042852
-0.49941427178596675684
-0.45503218474851669928
-0.29677534156895390982
-0.08449726626894557557
-0.10840035688612643938
-0.10517465851317653325
-0.42858047878973148936
-0.39062110472825345431
-0.39157372892600000869
-0.60591168871875766833
-0.07576969699386254531
0.12386749936216505386
0.14628995616523132739
0.10040478815176162586
-0.33031254841823115553
-0.35999051447436902773
-0.32497718466701330797
-0.49976873268237453907
0.11499652224276513124
-0.03304715292783901720
-0.00654154036607970321
-0.03679183404242961086
-0.00381749851683790224
-0.94134465495996844098
-1.00000000000000000000
-1.00000000000000000000
-0.75420427424459013377
-0.81844679208226345235
-0.76201972054103328524
0.06150027294568512909
0.08015763118850675883
0.04815362075972583200
-0.41802543488478521860
-0.36094313867211558211
-0.70548366358046332714
0.09891248092049352569
0.07087769781167851946
0.09130778462039622345
-0.12297742396014010868
-0.11365140041697290030
-0.13269983292697698496
-0.24932131080026709302
-0.25209912850337357071
-0.23310278277255419566
-0.16706369853378999490
-0.18237913163059890631
-0.18782433736221681997
-0.26161508651118969837
-0.19963169318772011618
-0.09907433334295923100
0.03714639978084000038
0.05814318923073508866
0.02852486628156949283
-0.28283770686654280402
-0.29176655151097335983
-0.30570418621338446563
0.08953505605450014226
-0.31103954996460225768
-0.06179025064535943745
-0.05306268137027640719
-0.03908323502177330627
0.14374876383324114437
0.18605248510738348067
0.16617122063630740403
-0.55628550154662170790
-0.60652427723147916971
-0.55567291303390020651
0.06915041020962092722
-0.02281238769392650301
0.14644368099041504827
0.14659740581559874140
0.11515024706794882436
-0.50692816364215531610
-0.45163657180335115005
-0.45879600276313187157
-0.94205910631319866866
-0.88340376127316710964
-0.88411821262639744834
0.12275494336804612661
-0.81916124343549379105
0.01792697650594579639
0.03694740967948769578
0.01520293465670399628
-0.37110059248967841583
-0.35062745605335687848
-0.39755229844846362575
0.04754529945511139222
-0.34047000223579404476
-0.63987958416051049504
-0.69704192920255025889
-0.64832131853842356328
-0.14943221574191489776
-0.13038378323191082697
-0.14711616604684873977
-0.50754075215487681749
-0.16474764883872383692
-0.24247067200212341076
-0.22625214397441051339
-0.23562003320397970074
-0.19559076555548576826
-0.20880239948037260245
-0.21284332711260695037
-0.26003264439777351580
-0.27074397799527988306
-0.27232642010869606564
-0.59808254285356610147
-0.07797082442994975049
-0.09581111242346132539
-0.08123404534944766997
-0.28125526475312662145
-0.05852702972586153185
0.11924913628273281496
0.13958579164497211811
0.10987171141673943153
-0.22221121634217616547
-0.30870295912287309958
-0.31950775377055212756
-0.30023475531692322971
0.21031366154813224689
0.23457483798888104087
0.19043239707705617025
-0.37209557461780623511
-0.41544578869046905334
-0.40828635773068833181
0.00229620589044942031
-0.01839351456566194407
-0.00212266723781514167
-0.36136151533558158455
0.17858787054518132642
0.21088578492513135321
0.17874159537036504730
0.10271723345024894036
0.12527683571199110801
0.09171001247136309487
0.14309159873028542975
-0.32966520758811501679
-1.00000000000000000000
-1.00000000000000000000
-0.94205910631319866866
0.03951797168802223537
0.04208853369655677495
0.01777349666523853761
-0.77672383611553319493
-0.83042102437096532164
-0.76546405518006166435
0.22273031145700619704
-0.66626123349625065995
-0.71023275387042039686
-0.65307040882838052198
0.13243131367848159918
-0.11351296388676088145
-0.11337452735654886260
-0.13024534670169879425
0.08320899259682386362
0.06007820113815577623
0.07067609091377947961
0.02219236979350309655
-0.25602628941926236505
-0.24917565062111868279
-0.26273126803825763709
-0.09567267589324930654
-0.18438281734575623361
-0.16675133455388116421
-0.18638650306091358866
-0.46623890933066974851
-0.51126220543864575596
-0.46251745604690081004
-0.26673762301676873232
-0.19759445127064309555
-0.72149253480589192744
-0.60193184796980059303
-0.56013480666285619947
-0.56398411177909058001
-0.27779242605944054478
-0.28484087412360115099
-0.28830371281728728317
0.10424291415440747888
-0.03965300819328553689
-0.04022278136479776750
-0.05909680289737376246
-0.29677191662323709753
0.25134761285168877309
0.22708643641094000687
0.26812038771449653307
-0.01896328773717417468
0.17268635246348215673
0.19877529911136557206
0.16918054537816884508
0.06264876314669032276
0.20483054201824846263
-0.41851501348338165931
-0.37516479941071884108
-0.37823402420363144705
-0.21703727734991135057
-0.22527215521945007093
-0.23044609421171488584
-0.33763186486529339625
-0.31666961640005153455
-0.32463627367722996953
-0.34836592414751810232
-0.51511151055488013650
-0.61512267263767061998
-0.94475525363479395669
-0.88681435994799273637
-0.88951050726958791337
-0.83311717169256049864
-0.42223646676715059778
-0.27378607108092939404
-0.14209199299735000843
-0.14460407952209936022
-0.12773326017694944245
0.16419853774517528811
0.18881128384537848586
0.15704405977868479694
-0.20582932914018181592
-0.16423924802913181242
0.25730300841841408088
0.28003117884794714865
0.24545848188653923705
-0.24528967699463327667
-0.25495932078528682485
-0.25884529441177223097
-0.08406275952387727568
-0.09015469461780480087
-0.10176461098717683174
0.03685501076605528920
0.01957560832825235367
0.03947177223130603207
-0.06518873799130128766
0.19379329147837204284
-0.24011573800236846177
-0.30455554844073517984
-0.29262450594109917779
-0.30040813775859720458
0.12812093779537253591
0.13096503987875393604
0.10708701623778890677
-0.68125332635440150053
-0.72898858123496734773
-0.67375727992532608024
0.08306044424839134632
0.08291189589995881515
0.06250021479825779158
0.28966470730769705577
0.31120902690089757847
0.27289193244488929579
-0.00451313460741435864
-0.02236795798610606220
-0.00110846435848246916
-0.30923053271756140159
-0.30975810631224970360
-0.31719718999473983656
-0.32615696743389782641
-0.35219549581876463673
-0.34912627102585203076
0.29562010287442236356
-0.32539662055556389797
0.23619090288308347558
0.26149602084103557020
0.23013565997620055725
-0.11612334380757741159
-0.57965160513414004662
-0.62295641931519529777
-0.57181785845661536882
-0.30508312203542342633
0.01617093807932046615
-0.27097272914348247141
-0.27921419024870736125
-0.28202753218615428388
0.27076359984449138718
0.05988345333300705564
-0.94475525363479395669
-1.00000000000000000000
-1.00000000000000000000
-0.47174141988825568639
-0.47724393044584162427
-0.52061402111246612989
0.18488125422835127720
0.18095122461132406855
0.15311403016165758828
-0.83694552617093476155
-0.78055219059390745784
-0.78438054507228160972
0.10693846788935637560
-0.20057220280523846423
-0.21475790254956333980
-0.22001502888450669149
-0.26708675551699712081
0.15595813224503901617
-0.63045246574427071806
-0.42378446113664147710
-0.37978201857312232637
-0.38133001294261320568
-0.15945500655872585360
-0.17681802012010172653
-0.18160226159050765760
-0.73281693571334161064
-0.28981116400365225516
0.21918140386684489829
0.22416341149983842751
0.24955152388831131072
-0.04035506909509382900
-0.04048735682538988356
-0.06532102572159734222
-0.52844776778999080769
-0.25101848268807297471
-0.23617489990515458387
-0.24707764459085909681
-0.02250024571640212023
-0.42928697169422741498
-0.13278337995754571632
-0.13743768647744786238
-0.11146903728767526554
0.30805306896137696349
0.34798575020825733839
0.32959738855457743067
-0.19578796133483253317
0.25552377236467344046
-0.31890501507896501510
-0.34856951964129823107
-0.32253099125643142076
-0.30995986628323574097
-0.31729806998023285525
-0.30985898629774272228
-0.31805841685856678369
0.31394342984323531098
0.32953235386971052590
0.34785568083852347332
-0.23091777357021120443
0.07748958918779833005
0.07206728247563783107
0.05446114662084655667
-0.35011751401078911039
-0.94558064897576088459
-0.89033590261055484127
-0.89116129795152176918
-0.15480070003882373531
0.01592745503532712326
0.00570716021395638231
0.02639123290069120623
0.12572853989804486097
0.12049203991733579977
0.10170196790864730052
-0.83777092151190168945
0.28890076404149434008
0.29816834304495015706
0.31630550724195316548
-0.30322880069614954746
-0.30604946363370194584
-0.30790378497297582472
-0.26360134076964047978
-0.27224336075399407919
-0.27572877550135072022
0.21242235004183607217
0.23603341623829365847
0.20849232042480886351
-0.29136510985243579963
-0.29588662380551650211
-0.28528965005057160820
-0.58638171497993529790
-0.59311182482573054919
-0.63718257559006596935
0.24279247006330248460
-0.25966050267242657412
0.17175092088415819247
0.15135798038145606426
0.17635107274774114439
0.33208059404023831940
-0.01227995089503138015
0.04399736875548247717
-0.73450320465043661411
-0.68293959529149650400
-0.68462586422859161850
-0.08537069769395648489
-0.08776269615588064288
-0.06292902725967318422
-0.10907703882575109366
0.09627966119648681542
-0.53647377254351891196
-0.48526993519936978405
-0.49329593995289788833
-0.30800466495846884341
0.34840494853809517162
0.36679331019177507933
0.38560087017529276476
0.14612148040074698918
0.31997543248116938619
0.28476347818474034845
0.29073572666110247820
0.36672827550690811904
-0.39037420556822294282
-0.43380906800703228354
-0.38585210925541807425
-0.31012717988342003439
-0.31375315606088644005
-0.30134934468787505368
-0.30565460548555539733
-0.63886884452716108385
-0.30087214505333192971
-0.30133615234806659933
-0.30369280799088427258
-0.28180423530321496717
-0.20781730600000000719
-0.21128760427478165962
-0.19231766306005088074
-0.29635063110025117172
0.31814046986156130359
-0.22729536577478165471
-0.23983282899999999738
-0.24345523679542954709
-0.54320388238931416325
-1.00000000000000000000
-1.00000000000000000000
-0.94558064897576088459
-0.15160140197877286505
-0.17041942400000001379
-0.17361872206005085628
-0.31140019151242287476
-0.34636510222751804022
-0.31515260329569394493
-0.78244027761838408352
-0.83680078778495292635
-0.78341041134533284662
-0.44183507276056044333
0.22973910573534372936
0.22344479523239377250
0.20219800992185893440
-0.03567681859515296761
-0.03808208771027142558
-0.00987468177991292217
0.19759785805827598248
-0.73353307092348785101
0.26461413169101222209
0.27137318551602107597
0.29319484714373078571
-0.22382506750000000229
-0.26563680800000000204
-0.26894008437699701286
-0.25635722629542956330
-0.35088719854032290879
-0.06052375814455472625
0.06868001428304185141
0.06529274609044585786
0.04061010056288649056
-0.18911836500000001049
-0.30208381218203972374
-0.29811816073037750163
-0.30403901350680662130
0.10639462684368261591
0.08923095465966021655
0.11344333338050921478
0.30658513981245005819
0.34478221102791822839
0.36055729782620338231
0.37325891481388329129
-0.12860776800000001119
-0.13069557397877284988
-0.10698923284697825498
-0.25273481850000001359
0.40583050452406860265
0.38702294454055086170
0.42606013887284444053
-0.29973375270912627766
0.40168482976482206004
0.41776878935435135531
0.38281223509643741432
0.13648318288568639378
0.16211262336909759707
0.15247432585403700167
-0.14951359600000002636
-0.27840214687699704754
-0.28456093300000001589
-0.28796302142621788001
0.34661717364752631099
-0.29304525006247750252
-0.28474115543708000686
-0.30182308525802248322
-0.29807067347475146857
-0.60034796944262269758
-0.64248691683560710253
-0.59672989713417656787
0.08584368646706423689
-0.94539619097512184176
-0.89097683995088261533
-0.89079238195024357250
-0.55312195769415006819
-0.50321401525773379326
-0.51313209056256958718
-0.83661632978431388352
-0.30342928016771120170
-0.30107262452489352844
-0.30080909670172045756
0.39551385208411732330
-0.29872561567403332905
-0.29374009442621790145
-0.29611507900000000326
0.12943447634885979491
-0.27509887050000003672
0.01459780369816043519
-0.01053950744849626621
0.01526262936674377922
-0.40680563167035732608
-0.45005078581162760720
-0.39858991861929016221
0.03994527489430314826
-0.29946362871604897959
0.27509588881133217875
0.24927034202186298950
0.25556465252481291861
0.28414536797753148223
0.18906367986434793882
0.21491061703846572883
0.20637643884453768517
-0.72279354873580858865
-0.67388634204091246716
-0.66314681985323320479
-0.05957102889757648345
-0.08346523919999999930
-0.08441796844697824209
-0.29033800600000003733
-0.31044365129670736803
-0.35040892843246518318
-0.31092192140456509364
-0.55674003000259619789
0.17942538234928734342
0.35268481960802383623
0.32293983337587728322
0.33633012604459661121
-0.10603650359999999830
-0.63174739464792795118
-0.28991202135546406682
-0.28170588198055063200
-0.29152761333421284284
-0.45996886111646345663
0.35621637044514170567
0.38285811161149863047
0.39245730840911402515
0.44343676635626627647
0.46081339383968805690
0.42320713200749038307
0.43929109159701973386
-0.28322351870881534719
-0.35862464148353234705
-0.30066807617403329411
-0.29999999999999998890
-0.30040454835086022323
-0.29805753950000002384
0.12124800163964788435
0.09327037386504687111
0.11382131424166525013
-0.94539619097512184176
-1.00000000000000000000
-1.00000000000000000000
-0.28868612046803232563
-0.27535660243036086392
-0.26597204942364172098
0.37257106400856893069
-0.83593140284724842815
-0.78175535068131873917
-0.78107042374425339482
0.13686116374684242913
0.40643165146916504504
0.42868658873939907705
0.43960438812444679879
-0.03616100409999999793
-0.03591891134757647930
-0.01078160020091978137
-0.28820785036017454450
-0.72210862179874335531
0.26685539611475317390
0.25861490341817411354
0.24102984932528392914
0.23249567113135588547
-0.29584641742453332558
-0.29088373814734624911
-0.29450094943886184762
-0.05981312164999999514
0.06472289684055736181
0.06415304759066886575
0.03937542564441465220
0.32074430137288800768
0.29792009509211009322
0.30696957425830939670
0.33671456049045589420
0.41603084826678038421
-0.52804066821426254297
-0.54294924586595549876
-0.57164860765428904266
0.09270052461515837505
-0.28865404106819414487
-0.27918992140601078811
-0.28044790169328071006
0.16857937422153318474
0.19553043071678352649
0.18468442258902936781
-0.60304803285959440728
-0.43483430136022821477
-0.47398319596139892873
-0.42081996651529274267
0.46410014336328653251
0.50214014785372862448
0.48147677084670836845
-0.28503682977667854637
0.45643945955239073609
0.47796176179505905912
0.49511012975043006135
0.15296621211433863996
-0.26205599077523139551
-0.27339857310615567343
-0.27188093637789101376
0.46735725893743840231
-0.26401402009943653049
-0.31378048136918862410
-0.36029305651977294733
-0.31211206633294796831
-0.29805753950000002384
-0.29611507900000000326
-0.29846208785086025816
-0.94526164688413993886
-0.89065783785926178062
-0.89052329376827998875
-0.83579685875626674729
-0.48889177361309188452
-0.29349940857367312619
0.41165369249004624130
0.38216925604903506652
0.40205550044958016098
0.01207978200000000071
-0.01204061104999999861
0.01333879284908021795
0.03811641479533443150
-0.72895858847122496638
-0.66999678652571481585
-0.67684675319819653794
-0.37430739136470841943
0.29245902523034877918
0.30982216164936537961
0.28421853253376971882
-0.25756061509114713814
-0.24914918075865258307
-0.27979641602767996167
0.24877948558949453117
0.23894406776081492105
0.22266025330267630311
0.31528323151112669365
0.45412196015012673556
0.42328963427962040811
0.44686317413728676717
0.21181424517492214443
-0.57006037200582371227
-0.61660359592952840302
-0.55650480893588960551
0.35969285716707632972
0.36670089472612882320
0.34372259804950844320
-0.28146483106392061746
-0.27346133429287777794
-0.27220335400560780048
-0.26521678660520486837
0.11075959707819162114
0.08745632233443023651
0.11600379935891974581
-0.62345356260201012510
-0.26363638869021810418
0.51873287065941098284
0.53532559346509334119
0.49806949365239072680
0.38917729360808750450
0.43288782632008648843
0.51521786160776172903
0.16536336270911022872
0.14330568217437905654
0.17502389264906981214
-0.27601687012585479630
-0.28186377849652255456
-0.27284381884569880450
-0.25242560351867582291
-0.25046757419447068793
-0.23887915761370998036
0.46935282271705008883
0.49710569353004174786
0.49910125730965337887
-1.00000000000000000000
-1.00000000000000000000
-0.94526164688413993886
-0.83662865783359963157
-0.78190222282158639011
-0.78273402189891927438
-0.24401416918618129559
0.33826152818774712916
-0.46509809506380567212
-0.50402367046488061320
-0.44996619821201694345
0.13806147989365091799
-0.72979038754855785065
-0.29033800600000003733
-0.28456093300000001589
-0.28772233557367310475
0.47661160872989005721
0.06000770810000000122
0.03604374504999999923
0.06208037784533443348
0.27443337288233016213
0.30003700199792582293
0.29025184234648621073
0.26459795505365057977
-0.39669973787056972414
-0.33617282787504992880
-0.35856517438091123351
-0.51757923353481471995
0.08538365258909580424
-0.27870237592284941019
0.22940450517135974051
0.21986494258190458773
0.20227468258546699165
-0.26148566917067012083
-0.26847223657107310846
-0.25775455173613537330
-0.27567975957826224009
-0.24336410927299423346
-0.23757903778733585609
0.19261415264550740822
-0.26529918529091711665
0.55561374569224919462
0.53902102288656683626
0.57590189791940493702
-0.25514137550907245444
-0.24506596441294006827
-0.25356097759408574577
-0.41183163472235845282
0.56898598331030958430
0.53204805653036979507
0.55215578838770151826
0.46882444870621886590
0.44023907059813255360
0.46147320442817280073
-0.24197256101332503819
0.41864745647981238541
0.42564122046957847401
0.39617105759785364860
-0.57614637714724747930
-0.58223238228867135735
-0.62953956774343389213
0.52070430389268773652
0.51870874011307610552
0.54230735047572220520
0.34279114180521125244
0.32630665172728834378
0.35474601826567003782
-0.94467696561592329196
-0.88993861250006334185
-0.88935393123184669495
-0.83604397656538298467
-0.22680653711153847540
-0.21473391660936699821
-0.23194154868400979064
-0.30770603389155970486
-0.28531368738569840016
-0.25684689340220823173
0.55564666689301589475
-0.73181705939986574361
-0.67887342504950431987
-0.68090009690081221283
0.31652149207584873158
-0.24721296559477204391
0.44723283458789864220