VARIABLES = "X", "Y", "P", "U", "V", "divergence", "vorticity"
ZONE NODES=7045, ELEMENTS=13692, DATAPACKING=BLOCK,
VARLOCATION=([6]=CELLCENTERED), ZONETYPE=FETRIANGLE
-1.00000000000000000000
-0.95819547237095736847
-1.00000000000000000000
-0.91639094474191473694
-0.95819547237095736847
-1.00000000000000000000
-0.93601918465064382069
-0.87203836930128764138
-0.89421465702160118916
-0.90708414691296390675
-0.89777734908401307656
-0.94888867454200653828
-0.86534224595730901974
-0.84316595823699547196
-0.81429354717270330255
-0.85603544812835818956
-0.94888867454200653828
-1.00000000000000000000
-1.00000000000000000000
-0.80961667213789412223
-0.74719497497450071410
-0.78074426107360195282
-0.83291904935168514790
-0.79117714839603037191
-0.76806074961935733025
-0.89461546617309561924
-0.89145358326217816192
-0.94572679163108908096
-0.82975716644076769057
-0.71852794020701171718
-0.68986090543952272025
-0.75207722630611306691
-0.72896082752944002525
-0.94572679163108908096
-1.00000000000000000000
-1.00000000000000000000
-0.68678915184936673022
-0.62638332872423274633
-0.65812211708187773329
-0.78935376653638267275
-0.84040367489928047284
-0.77870725807787000150
-0.69660397965664078157
-0.65750405756672347657
-0.62514720969392423289
-0.89529464973022332419
-0.94764732486511160658
-0.89337411649620079857
-0.84232420813330299847
-0.73277314851907171533
-0.72212664006055904409
-0.67619253050176075792
-0.65066987009784249540
-0.62848827473631696527
-0.59674948637867197831
-0.56711564403311132132
-0.59613142686351783262
-1.00000000000000000000
-1.00000000000000000000
-0.94764732486511160658
-0.79440011299538126899
-0.84484738136280235210
-0.79187693976588202638
-0.53932248018247297416
-0.56895632252803374218
-0.51152931633183473803
-0.75028891766058047885
-0.69370829964326952144
-0.71122406878477817394
-0.58781654579491116053
-0.55048588189589797715
-0.61333920619882942304
-0.75281209089007972146
-0.53692989187503181725
-0.50674413971695220216
-0.56594567470543821752
-0.94835927430012745276
-0.89600659916523905935
-0.89671854860025490552
-0.84555933079781808726
-0.52861501080642514516
-0.48338954157219682362
-0.45524976681255896471
-0.51118270542283517077
-0.64562007556150091681
-0.61504762062124096467
-0.66313584470300956930
-0.58276675125856947091
-0.48099695326475555568
-0.69533782847275771299
-0.67945158816073725205
-0.73692585057805926052
-0.94835927430012745276
-1.00000000000000000000
-1.00000000000000000000
-0.84478028851007480604
-0.79362107070763809880
-0.79284202841989481758
-0.64724960439098910836
-0.45777216968562761679
-0.40401502303942044003
-0.42963239492598970237
-0.73614680829031597931
-0.47743825945837858882
-0.44813237919980503099
-0.49930913054785153182
-0.42864655680893309908
-0.40204334680530723345
-0.45439374326112969005
-0.56380497607967683393
-0.53152410671700534017
-0.51256233153811281422
-0.94853537596411952038
-0.89689465026424697314
-0.89707075192823904075
-0.42508786300255613222
-0.84495639017406687366
-0.61817795275437925628
-0.58597596898463111259
-0.55690431734802126051
-0.51046239323368269858
-0.45928564188563625326
-0.47043890457146753104
-0.49150061805479017263
-0.40404379370810561412
-0.37842642182153635177
-0.35283782060365226352
-0.37744058370447974848
-0.69279780042755834124
-0.74281991442372663492
-0.68612469429414779665
-0.53473332444306698186
-1.00000000000000000000
-1.00000000000000000000
-0.94853537596411952038
-0.58958957184187521516
-0.63452058000130628912
-0.57324694459494818233
-0.79498384442871139477
-0.84602729817847521776
-0.79391293642430316169
-0.37683015727905933012
-0.35161696775281137128
-0.39987467347630822889
-0.64119368613471672269
-0.74389082242813486801
-0.32833976853140023344
-0.35392836974928432170
-0.30384171645914820337
-0.44061380951333206646
-0.42946054682750078868
-0.41078871445519660188
-0.50257262704642835516
-0.48040163414147418752
-0.44824093674483556082
-0.32921132370218614271
-0.30558482680072002191
-0.35381408680301362768
-0.44889615365056156904
-0.42735340272965555153
-0.46995786713388421063
-0.38120284110400398658
-0.32860089727676566884
-0.94842679012057784504
-0.89696216608469736542
-0.89685358024115580111
-0.84591871233493365345
-0.54073116526957809569
-0.52438853802265117388
-0.49187275869728097621
-0.43779716973724558393
-0.41907105859242610446
-0.59473985884110058819
-0.59989014584032585020
-0.64634397313394209572
-0.47005684772105826852
-0.69476960876258964106
-0.74487672659565051791
-0.69378370459507399115
-0.28100170387950068607
-0.25816169129985316877
-0.30549975595175271614
-0.28187325905028659534
-0.64732987730145774563
-0.38286172419916736365
-0.35327585084797474835
-0.35493473394313812541
-0.94842679012057784504
-1.00000000000000000000
-1.00000000000000000000
-0.30533894759529378593
-0.28232287711924808349
-0.25906092743777614507
-0.39114406833639681071
-0.50763734250788328239
-0.54861345717487930429
-0.49975505060258212930
-0.79382873262634912059
-0.79267362082398673540
-0.84476360053257126825
-0.55376374417410456630
-0.74372161479328813272
-0.40557364897903508405
-0.39512988197144505165
-0.36290636121323460728
-0.41531501155339506370
-0.45359388512533804771
-0.43177797414911534002
-0.25720234246872031303
-0.21056296847829242269
-0.23436232988907279573
-0.31836359348204623654
-0.31670471038688285947
-0.28179245302095429215
-0.27042669022936521861
-0.35892054757818636634
-0.23787634326528658835
-0.21759099523072000792
-0.26158791101571998716
-0.23832596133424807650
-0.59809853218831798838
-0.59630691853631012656
-0.64553826364944988381
-0.89468661071293753562
-0.94734330535646882332
-0.89577009547704666836
-0.40364078266647573923
-0.36097349490067520694
-0.35904062858811586212
-0.84368011576846213551
-0.38717782007075546291
-0.46478864607521575003
-0.45690635416991465245
-0.42193994964254827318
-0.55395507927091713896
-0.50782867760469585505
-0.50802001270150831669
-0.41862748059797166844
-0.68582396927295219413
-0.73924879504846940925
-0.69029678901777091760
-0.55216346561890916611
-0.29013563969318689750
-0.32652100045321075239
-0.32253518681816251146
-0.21380300005657768003
-0.19000363864579730699
-0.16944430881330219130
-0.64106544390463116034
-0.28596404635707062258
-0.19351765202201109961
-0.23386660576853526838
-0.20867228409929439170
-0.24523236856012434193
-0.19103990135069551237
-0.22505041439423584260
-0.20431544829070774627
-1.00000000000000000000
-1.00000000000000000000
-0.94734330535646882332
-0.78467509809793423159
-0.83968085440543593911
-0.78867435946096042798
-0.42116114564152928867
-0.42038234164051035968
-0.46400984207419682104
-0.46420117717100933818
-0.19985609272499493816
-0.32426094267504890212
-0.32619380898760830245
-0.28948125676198199763
-0.73524953368544321286
-0.38107451857929547367
-0.35293732709665587288
-0.34683402560519588365
-0.38438698762387207841
-0.28980844822758444757
-0.14631030545773551776
-0.16686963529023063346
-0.12317630210216885811
-0.50356448037218182190
-0.49910894804285532711
-0.54770793328958267132
-0.25124979324329971275
-0.22070713346564510560
-0.25542138657941598767
-0.63344141529133368707
-0.58868288992301265328
-0.58105886130971518000
-0.21468970878246973477
-0.15041702170240417447
-0.13138973459150615763
-0.17449036491111308278
-0.16121481797110082113
-0.94570675245747448656
-0.89305005781394330988
-0.89141350491494908415
-0.83804430150644160236
-0.54008390467628530907
-0.27946550483500048889
-0.31925306671155817551
-0.28447338079849127102
-0.37986119821211816738
-0.33778244678168800608
-0.37908239421109918288
-0.31314976522009818627
-0.34230823619344197262
-0.46068786920895005155
-0.41686903367845107304
-0.41335572571639178641
-0.65987562301606372817
-0.72227536055699892437
-0.67284979614450790564
-0.16688568284541177578
-0.14273146434012803918
-0.17570187421971122932
-0.45623233687962355676
-0.25617005721740226942
-0.22220447474161766910
-0.25584286575179981948
-0.62046724216288939857
-0.10394626815048425839
-0.08471623419879965866
-0.12708027150605091804
-0.22145580410363138735
-0.10805298439515290121
-0.13706059946581711229
-0.18178286313690120157
-0.15489344217450801144
-0.18780028782007657240
-0.94570675245747448656
-1.00000000000000000000
-1.00000000000000000000
-0.78148408261964052990
-0.77829306714134682821
-0.83485328602814790067
-0.14881245325731801143
-0.37517015756055543951
-0.33387021013114426271
-0.32995797348060051934
-0.71908434507870522268
-0.37165684959849615288
-0.25245091243879075327
-0.21542056811559950891
-0.24744303647529999890
-0.53322542198957878501
-0.49225046535614891408
-0.48539198266944244553
-0.27316264317719607391
-0.26685978151939160341
-0.30684690356229371577
-0.30232111415053980474
-0.21881252142860857512
-0.40947220845117737742
-0.40558869118596291292
-0.45234881961440909226
-0.08193643280483227376
-0.04069656350749568247
-0.06270639885314767403
-0.56721165636695580758
-0.55336445142419643517
-0.60662003722013002616
-0.15854814641815273557
-0.19037631057988518846
-0.18962763994189890671
-0.15672079429633037351
-0.10423573263025323610
-0.07708173066900030068
-0.10990659750456416299
-0.44549033692770267923
-0.06574591809921255525
-0.04677560199962544490
-0.08908266829556579780
-0.51937821704681941259
-0.88846317240123484638
-0.94423158620061742319
-0.88993833865809190975
-0.83337811977129083729
-0.20722286590922520122
-0.24334418537211283118
-0.21132171701241236894
-0.29473741445651679971
-0.29864965110706054308
-0.25951685543243308008
-0.23704132371430841619
-0.11809157822265864413
-0.09345169210518924907
-0.12417256713984863026
-0.06192866633431287626
-0.26318831847591234174
-0.32788375058283980579
-0.37061973814961579610
-0.32892086203172016257
-0.66361452050106528588
-0.66735341798606695463
-0.72282324256370689142
-0.36673622088440138711
-0.18903126687581039977
-0.15585805901000310270
-0.18563931356280130580
-0.08526671138709476794
-0.55770068589889310040
-0.56203692037358976563
-0.61095627169482669139
-0.15720310271407791913
-0.04461224964408529864
-0.02260241429843331054
-0.00450826508937093948
-0.02564193354449819176
-0.12693726730780510725
-0.09898109244110221694
-0.12876461942962746932
-0.61469516917982836013
-0.40065948276627033620
-0.44302573271785639086
-0.40312408697611662456
-0.94423158620061742319
-1.00000000000000000000
-1.00000000000000000000
-0.09621639227314573994
-0.51400448880688287545
-0.48001825442950585288
-0.47464452618956931573
-0.77416089166017787448
-0.83131203203070636043
-0.77622697940076235135
-0.26612566284762606550
-0.29804181816411329242
-0.26282125914002957279
-0.18533574178890932505
-0.15525091546221911343
-0.18123689068572215732
-0.72075715482312241456
-0.29700470671523293564
-0.23699535486317080402
-0.20717689705808761680
-0.20713092820695000462
-0.23332389181969154235
-0.15555448723611109418
-0.04483957531825021742
-0.02968651098356278953
-0.01259741996750013415
-0.43765200447791985372
-0.51834072328157954068
-0.36840154556341064840
-0.32954907526184906708
-0.33121439994085838388
-0.06374568656291439150
-0.05556070584481991731
-0.03403968102063953394
-0.36593694135356436004
0.01658966758307022990
-0.00150448162599214202
0.03768760025551139842
-0.10016781090275121702
-0.12801293495637716680
-0.12935797866045198323
-0.09957445167192671698
0.00906410082027000498
0.02263646672991094858
-0.01206956763485724816
-0.94254203312048523422
-0.88677361932110265741
-0.88508406624097046844
-0.02331855049406983404
-0.82962247895057417146
-0.07231800595044178548
-0.06955330578248529461
-0.04565491945978134708
-0.56227592674689863550
-0.56251493312020739435
-0.61493417555313723000
0.00501952338120540721
-0.18599225691546122929
-0.16000628169195818540
-0.16476164792169728512
-0.18594628806432364487
-0.24426559300716205181
-0.24096118929956555910
-0.22240552316669801036
-0.21476822568682402137
-0.66319159192583454487
-0.71867624179300615417
-0.66527250495595069424
-0.03984730024021043704
-0.30484078671084513523
-0.27396174284323826509
-0.28179782283885046468
-0.45251009388431356895
-0.50727350712895169504
-0.46357731003694147009
-0.30650611138985439652
-0.10845920716209896117
-0.13185506131215904424
-0.13215863308605102500
-0.43764752295699504980
-0.40065500124534558779
-0.40065051972442078387
-0.61285326252302096961
-0.10431350903242508910
0.05793494824189071579
0.07818229622827002623
0.03683701556944954381
-0.33885416899130121893
-0.36975682587878577756
-0.33503428446607980140
-0.50751251350226045389
0.05040938147909048567
-0.07127024581396020075
-0.04355939918681819151
-0.07186360504478470079
-0.04460715932329976929
-0.94254203312048523422
-1.00000000000000000000
-1.00000000000000000000
-0.75944860096014354944
-0.82226633360055700894
-0.76680474631016071196
0.00546540136317044331
0.02352822269384102077
-0.00525572916339925658
-0.42658030680436720417
-0.36975234435786097364
-0.71132009644298910267
0.03781243295870953536
0.01260750649560470060
0.03022444984431024023
-0.14138581160612700982
-0.12752070775003487846
-0.14614117783586608179
-0.25314054720933942821
-0.25963310502848274686
-0.23777303518801873317
-0.17629173167509223918
-0.18782181542848719324
-0.19747637181771859893
-0.26746918502409494645
-0.20511366929759261568
-0.11798995745606691288
-0.01313905578833012011
0.00776156944397929545
-0.01894667500790102668
-0.28941214843533558110
-0.29702647403182069752
-0.31412043698633951294
0.03067032782627527807
-0.31794032151156093047
-0.08674444199951024392
-0.08259874386983637184
-0.06502967683692152667
0.07566237667889041951
0.11363715310226944755
0.09590972466526972995
-0.56432091338871259723
-0.61375625265727351554
-0.56341792325446005130
0.01564489606891015724
-0.05429453801186985562
0.07878590028453844041
0.07938950434080686847
0.05101298553535890679
-0.51465806165508898307
-0.45965564203714204261
-0.46680119018997051628
-0.94343937827205659463
-0.88598141139254182885
-0.88687875654411318926
0.05860096864975820191
-0.82316367875212836935
-0.02608769169248624162
-0.00652046392519113876
-0.02503993155600466383
-0.37900073251485100201
-0.35735094530528127565
-0.40493051959479742230
0.00062055275939407835
-0.34810255714829124729
-0.64721099483319766144
-0.70332979789667060544
-0.65520129337951615867
-0.15940147608355584308
-0.14078100599772463974
-0.15404130424541440103
-0.51556105178934152899
-0.17093155983695079714
-0.24530357243857842109
-0.22993606041725772604
-0.23746659766781744172
-0.19966466455954171022
-0.21150751369059622720
-0.21695651842864710490
-0.26359700120053292105
-0.27405345519172641389
-0.27792563901528843928
-0.60576595411095512933
-0.09325203565610186429
-0.11038637170306836444
-0.10085562140910041273
-0.28553996461177355570
-0.07914085624651169548
0.05672770064079406954
0.07564296832287860373
0.04958559550835980878
-0.22448705567920684834
-0.31153796514407616769
-0.32519606706768866555
-0.30428221958794843260
0.13510421879820802560
0.15657128449414658977
0.11737679036120830800
-0.37842814780091804661
-0.42261466899544430920
-0.41546912084261578002
-0.02556885631750432583
-0.04529926657721292799
-0.03456412775216125693
-0.36788954655309968889
0.10713135204711247972
0.13608040786595493321
0.10773495610338090778
0.04579247181770994268
0.06805672094157887153
0.03790914519277908262
0.07751623633184273610
-0.33444445522467869392
-1.00000000000000000000
-1.00000000000000000000
-0.94343937827205659463
-0.00099037961215742891
0.00453970470087628093
-0.01950984724297095615
-0.78239220198777759130
-0.83463547926594539028
-0.77092040147396057037
0.14632584618005076149
-0.67395426253745671641
-0.71670143174880007741
-0.66058262868532713341
0.07184984463222873763
-0.12516371419013488930
-0.12280672063023487239
-0.13842401243782465059
0.03613447783631453664
0.01480700695556169851
0.02194802364014691518
-0.01051457580831402158
-0.25870962984010359431
-0.25087265506934258719
-0.26427871247086776041
-0.10802937814316837528
-0.18828415128336295492
-0.17139389569182655881
-0.18874648713823874435
-0.47572264927312984950
-0.52002178133092125112
-0.47126191973155018289
-0.26916608383129708715
-0.20012700041441749965
-0.72817323226261709834
-0.61012349520527464630
-0.56867845448303211420
-0.57303599557735163117
-0.28035479552818520776
-0.28665613586464400164
-0.29184130494823234958
0.05209559938894670061
-0.06156429124564256894
-0.05809890565436361121
-0.07567547065523273775
-0.29909705050436008467
0.17120186019118938114
0.14973479449525081697
0.18583243588823220027
-0.04183388098593397025
0.10322646869262852576
0.12706343304445016917
0.10135320068366437951
0.02033709126859540792
0.13157192045520255119
-0.42662723869755725392
-0.38244071750303099133
-0.38645328720514399157
-0.21894936905697015561
-0.22639122442334405627
-0.23192891104558074900
-0.34262931452127776133
-0.31972282444067523510
-0.32790768373727430252
-0.35316791576909617456
-0.52437932242524076809
-0.62349512905740422930
-0.94629243180692779180
-0.88973181007898438644
-0.89258486361385558361
-0.83748853280081658745
-0.43108796823913692053
-0.27546742416775588103
-0.14669939225810488259
-0.15037034825175965569
-0.13475305644416987749
0.09880585333688315930
0.12196873835088771487
0.09501272964623329320
-0.20756885578079140031
-0.16772293969817181347
0.17650205191509343861
0.19643281933604028744
0.16625661360099761032
-0.24657388783614841987
-0.25568117800447942578
-0.25997994523767359309
-0.09609218034758731930
-0.09893232503907276043
-0.11086952283465381641
0.00799478263069292733
-0.00878703684340569925
0.00626724366578460413
-0.07851561534671819276
0.12451608569766894896
-0.24103620121391172715
-0.30628160058725578674
-0.29384068594753970372
-0.30102523603043540579
0.07439021970330783606
0.08072371846503678672
0.05842909815067566515
-0.68976424427339555479
-0.73607822313058657304
-0.68185925340542619111
0.03984564303499034399
0.04355680823366615828
0.02404825646727121874
0.20440129252961522499
0.22297014917099824971
0.18977071683257240586
-0.02557288858522514460
-0.04183589711979437964
-0.02557087245136473522
-0.31128925926759032361
-0.31104055339110453504
-0.31947411856418939102
-0.33050912892052186631
-0.35848120806283290118
-0.35446863836071995646
0.20970148425351925470
-0.32920840632889808441
0.15884164416406720832
0.18160288046217948343
0.15433315675331482630
-0.12281585864858882151
-0.58973516317378749108
-0.63184471285562215925
-0.58138557937556956112
-0.30603289471076999817
-0.00878905297726610864
-0.27209644851713066238
-0.27991418456339361986
-0.28328516021401883851
0.18901784989910988544
0.02577579543217954280
-0.94629243180692779180
-1.00000000000000000000
-1.00000000000000000000
-0.48209512921951824804
-0.48846760916590659107
-0.53075180237162911112
0.12140903394226032486
0.12084932953363294872
0.09445302523760590319
-0.84166794601566596867
-0.78657161520262697252
-0.79075102841747635374
0.06214026334935147250
-0.20207758013419654941
-0.21540867313015435447
-0.22089994877674920537
-0.26779768128393655058
0.10078652399933486772
-0.63974970372359152293
-0.43410244293023647622
-0.38946776189624354725
-0.39248223658734315844
-0.16239647278692942445
-0.17809355331575393855
-0.18342002022699632757
-0.74025763634543595426
-0.29046971029691448507
0.14792514474009763048
0.15047249208687885069
0.17388155112930755997
-0.05556340003742964162
-0.05302789442049566510
-0.07598010972978420929
-0.53910138616984704107
-0.25154124815697836981
-0.23689627136641069893
-0.24740131830947734159
-0.03930039150286040311
-0.44047492287662487476
-0.13554119933290259548
-0.14112029579550372516
-0.11723676218598767795
0.22007947636940378144
0.25432651685057539037
0.23864833301078680616
-0.19675111322295413263
0.17774221579574350782
-0.32605239041953648638
-0.35625283881234026673
-0.32828075967002917634
-0.31140365955085302918
-0.31965567164406366585
-0.31122210647097880987
-0.32095639423568744775
0.22561622764068678393
0.23888489255816575119
0.25479963594533328042
-0.23140499571981584803
0.04279269903613780457
0.04202858983860945780
0.02501168623465119256
-0.35926731350343982241
-0.94733179111589316257
-0.89362422292282095437
-0.89466358223178632514
-0.15681737632432826701
-0.00256708873208685807
-0.01406998865865600155
0.00271384694930303441
0.08024311274454357101
0.07976250702405034143
0.06165965762885824986
-0.84270730532463133944
0.20514094995000542454
0.21255591938693585430
0.22867901943783139340
-0.30381211067355140543
-0.30659898531666740507
-0.30881976935388599781
-0.26409569124984744182
-0.27251020449521540234
-0.27621219452930451110
0.14421852721356784310
0.16646831607624795746
0.14365882280494046697
-0.29152206413309345034
-0.29627365008176442807
-0.28571812434824350735
-0.59706922177424881504
-0.60440328037471025002
-0.64708376232405284689
0.17017493360277774483
-0.25995576140234638585
0.12032504453378684017
0.10052438149941181345
0.12058718703370989445
0.24173932769158235079
-0.02779749157629126180
0.01973075055326129965
-0.74255505565978574545
-0.69206166358774545699
-0.69435908290209524818
-0.09003339878138094665
-0.09448286191022685354
-0.07153064660093830240
-0.11278729905714177106
0.06089554843132989614
-0.54792616026526275164
-0.49729238326132235715
-0.50611715735673812322
-0.30900132243376021712
0.25477816158418054027
0.27045634542396912448
0.28658617399736280307
0.10004377577891859774
0.23431336212378614525
0.20409745662654685261
0.20795812129298280047
0.27069290497134801399
-0.40429007153441232081
-0.44637884035015945594
-0.39838615406087773962
-0.31478975337750958463
-0.31701812262800233011
-0.30352711633548273840
-0.30746538794316791154
-0.64938118163840274910
-0.30126501330066179918
-0.30150479057088819257
-0.30405188794377779882
-0.28201613431415439859
-0.20781730600000000719
-0.21161298956507718083
-0.19295542965787698675
-0.29651342735199082146
0.23149619078080876933
-0.22762075106507717592
-0.23983282899999999738
-0.24361707365473866949
-0.55526021886572418662
-1.00000000000000000000
-1.00000000000000000000
-0.94733179111589316257
-0.15298031166645131851
-0.17041942400000001379
-0.17425648865787696229
-0.32260811934062355588
-0.35754517796398332941
-0.32433025488008004888
-0.78984615687735582057
-0.84225486955457107285
-0.79029859264741608715
-0.45520361444557522201
0.16413343916943826106
0.16179856226262856467
0.14132394589813074282
-0.04288787449229908288
-0.04795788445639737052
-0.02272748161219297069
0.14106180339820770242
-0.74210261988972558989
0.19062180394336541989
0.19432842146989523502
0.21477529181048291007
-0.22382506750000000229
-0.26563680800000000204
-0.26907350624760772995
-0.25651906315473865794
-0.36344909543751791059
-0.06646063663684001477
0.04307267247807558541
0.04411675511754171997
0.02077483319272743073
-0.18911836500000001049
-0.30260110705581400037
-0.29860322879496054016
-0.30500344417290681243
0.07451289477645345327
0.05827074230753145900
0.07713770090025190429
0.22454432696713452766
0.25350444910347358363
0.26656475735722451326
0.27832987876911574610
-0.12860776800000001119
-0.13207448366645130333
-0.10932058339069047892
-0.25273481850000001359
0.30376878733867085369
0.28763895876527717510
0.32095140067997895983
-0.30106517256522163928
0.30093941769998810987
0.31529266140261336115
0.28504614867397332079
0.09586314680258500864
0.11614441555745325108
0.11196378658111967586
-0.14951359600000002636
-0.27853556874760770912
-0.28456093300000001589
-0.28804149856654670536
0.25632162044645095955
-0.29614714310739936876
-0.28876716987931599911
-0.30740978014942621499
-0.30568764460996977750
-0.61290237794099400315
-0.65363073042154462566
-0.60865282915785212658
0.05931482494699758662
-0.94740215106728919991
-0.89473394218318236248
-0.89480430213457851085
-0.56591303010140248109
-0.51676996859241641769
-0.52742277982809471215
-0.84232522950596711020
-0.30378042588142151192
-0.30123332850853190568
-0.30096186644617561878
0.29681127008586455363
-0.29880993478544409792
-0.29381857156654672680
-0.29611507900000000326
0.09323834067878655762
-0.27509887050000003672
0.00502418122875539306
-0.01893184663177184535
0.00122854624833426749
-0.42303291954677385567
-0.46457503845175596169
-0.41366149554059306048
0.02457046817314855608
-0.29978254762056810723
0.20385056845668939052
0.18282456535965896371
0.18515944226646868787
0.20931293013358615029
0.13753799229532973070
0.15827475115975059294
0.15475094005687262122
-0.73248425422404916940
-0.68474071723641882770
-0.67512235157074251823
-0.06317655684614953415
-0.08346523919999999930
-0.08674931899069046604
-0.29033800600000003733
-0.32593562410312143518
-0.36511284781876685024
-0.32427187172187249553
-0.57016257888454435765
0.13335736331899614160
0.26611907436830373186
0.24044718308939333484
0.25021621824604495243
-0.10603650359999999830
-0.64401236475586820518
-0.29073289081688558078
-0.28286255283881056588
-0.29319483458714667989
-0.47522784968743425615
0.26600852452907169932
0.28801678285173648586
0.29770368693435722562
0.33609297936443860433
0.35123455804889824883
0.31891036602313049819
0.33326360972575580499
-0.28581486135906331025
-0.37448427182494764542
-0.30075239528544406298
-0.29999999999999998890
-0.30048093322308777608
-0.29805753950000002384
0.09490803570351136198
0.06951239541052653403
0.08471046523998240763
-0.94740215106728919991
-1.00000000000000000000
-1.00000000000000000000
-0.29798414240173276557
-0.28106366767107898719
-0.27336016546284197526
0.28191138065133047874
-0.84216578014753584736
-0.78968670751892444670
-0.78952725816049318386
0.10343591114231551198
0.30730296661120193313
0.32578435792795079617
0.33627605445328817568
-0.03616100409999999793
-0.03952443929614954388
-0.01556841143562230287
-0.29964789478298170522
-0.73232480486561790656
0.19998574241827626885
0.19612091637986317494
0.17895973932124586980
0.17543592821836789808
-0.29596596249807427537
-0.29097005854997293195
-0.29478664367246676381
-0.05981312164999999514
0.04833651426453916544
0.05255627341153660398
0.02879022732014599809
0.24161665783484581604
0.22273361314576761716
0.22819597482266434918
0.25386786610157474620
0.31698987069382267290
-0.54289500050063466130
-0.55836722117317461045
-0.58563479955708430680
0.07373215455752397951
-0.28908517368219671662
-0.27956711856943289307
-0.28121483570412175723
0.12845766845481859653
0.14985124519269504839
0.14495155032851750332
-0.61674478637195861985
-0.45280458949157764703
-0.49011368465983617959
-0.43791875451917572359
0.35359975283541494884
0.38624810499085093785
0.36874133151987459334
-0.28526858855970294027
0.34888464800165580604
0.36685559632479824987
0.38247663460069825092
0.11992979301601443265
-0.26420762771684497272
-0.27648739879808048592
-0.27353509027782774155
0.35937634452699318555
-0.26878389658984347399
-0.33351171959063219408
-0.37827231956870299712
-0.32972367184687678687
-0.29805753950000002384
-0.29611507900000000326
-0.29853847272308781102
-0.94749438506547889460
-0.89489653613276809452
-0.89498877013095778921
-0.84225801414572543102
-0.50558590533237612874
-0.29354256877498646761
0.31749405889243259571
0.29180656663036819154
0.30759887291339493842
0.01207978200000000071
-0.01204061104999999861
0.00855198161437769645
0.03231802770576830408
-0.73971756185571224673
-0.68251510856083696943
-0.68990786555093130961
-0.39315815454110492055
0.22040730382723716652
0.23696403919778494251
0.21654247778882407260
-0.26768480500503888386
-0.26200944454723573696
-0.29397253432517855831
0.19157595255435572179
0.18703098872884826864
0.17089096439286044493
0.23929034851631536540
0.35159800125111007052
0.32465084409273364807
0.34393702785219915086
0.16599126952868287210
-0.58654413861954091125
-0.63083324509514171474
-0.57245567989635781636
0.27434768740315024216
0.28257630043799675246
0.26209647913642131201
-0.29776058206893396552
-0.27445264315759193563
-0.27280492602290307147
-0.26604273347637330538
0.09799059189522846269
0.07527343265338252987
0.09644931379936991234
-0.63822600208523616594
-0.26512518059660916681
0.40075331440946482253
0.41525852382807870722
0.38324654093848847802
0.30003517966521464633
0.33454603007177130536
0.39886757921438847907
0.13855972696588575443
0.11673388133469855821
0.14175563864720164275
-0.27627117045646398807
-0.28197264044673403527
-0.27297522234349513859
-0.25814961584021001162
-0.25357334696721151035
-0.24293906621757804798
0.36243604582776678402
0.38553633590147179389
0.38859603720224533685
-1.00000000000000000000
-1.00000000000000000000
-0.94749438506547889460
-0.84345990925069225241
-0.79072915326545989423
-0.79193104837042660460
-0.25247425538240686471
0.25977016981789086136
-0.48451709178901419817
-0.52144215648109437655
-0.46866084064029589484
0.11827515943055710856
-0.74091945696067895710
-0.29033800600000003733
-0.28456093300000001589
-0.28776549577498644616
0.37009701922667770368
0.06000770810000000122
0.03604374504999999923
0.05628199075576829913
0.21153081188469821661
0.23195237329365908652
0.22694070738953325828
0.20698584805919076346
-0.41669935306438388167
-0.35705291811391115520
-0.38059411663719011631
-0.53553061520427758246
0.07899914999761423196
-0.27876807767174760500
0.18330955916417124296
0.17958812959949424504
0.16226983996400587418
-0.26211603944891476159
-0.26887823199544458319
-0.25818934542145621780
-0.29399415542307766325
-0.25824301790137943469
-0.25447659125552313242
0.15907392828269001361
-0.26558228388247567819
0.43236870213133915541
0.41786349271272527073
0.44947888043459960361
-0.25621230680723144912
-0.24638188013808959287
-0.25529475392746725504
-0.43255560421310212948
0.44553404485343400809
0.41400533972706610175
0.43039628434075638541
0.36720396128480675690
0.34234901008861967631
0.35940098126795838596
-0.24466047317783382042
0.32549432492499508207
0.33349459095755762394
0.30803544569777718820
-0.59321774139341942877
-0.59989134416729794630
-0.64489960485911468346
0.40659234146019862521
0.40353264015942513776
0.42458864571815196909
0.26853192850643087253
0.25274798385210789364
0.27555411447221378474
-0.94710611403486155702
-0.89460049910034045162
-0.89421222806972311403
-0.84307163822007491483
-0.23298751669423428678
-0.22303596717089049783
-0.24252270585906310352
-0.33032936565297910114
-0.30678816712970014002
-0.28006461466876808597
0.43506134528579298859
-0.74337795841311749001
-0.69236636700336984251
-0.69482486845580837542
0.24773631794798206540
-0.26727060296214560919