VARIABLES = "X", "Y", "P", "U", "V", "divergence", "vorticity"
ZONE NODES=7045, ELEMENTS=13692, DATAPACKING=BLOCK,
VARLOCATION=([6]=CELLCENTERED), ZONETYPE=FETRIANGLE
-1.00000000000000000000
-0.95954039374573418808
-1.00000000000000000000
-0.91908078749146837616
-0.95954039374573418808
-1.00000000000000000000
-0.93808875834378302461
-0.87617751668756604921
-0.89762915208951721269
-0.90993703191090002935
-0.90079327633033168254
-0.95039663816516584127
-0.86947885141256076036
-0.84802721601060959689
-0.81987691533365314456
-0.86033509583199241355
-0.95039663816516584127
-1.00000000000000000000
-1.00000000000000000000
-0.81552689341767004017
-0.75487627014777414214
-0.78737659274071369886
-0.83735351593365492384
-0.79689533543531565485
-0.77391375553697805412
-0.89752171114699508259
-0.89425014596365837161
-0.94712507298182924131
-0.83408195075031821286
-0.72679868404377856450
-0.69872109793978298686
-0.75929900663671801020
-0.73631742673838052049
-0.94712507298182924131
-1.00000000000000000000
-1.00000000000000000000
-0.69635910016214297436
-0.63784193017651191759
-0.66828151405814750774
-0.79400449153796026636
-0.84412731875080937449
-0.78395912353746921575
-0.70415624004007115744
-0.66655991124147373483
-0.63439872454316437178
-0.89781655990265463174
-0.94890827995132731587
-0.89603335293315655719
-0.84591052572030744905
-0.73840882325725210045
-0.72836345525676104984
-0.68281315497654393454
-0.65860593975985415316
-0.63945041347519859798
-0.60901082959356300783
-0.58017972901061409807
-0.60728922677688923493
-1.00000000000000000000
-1.00000000000000000000
-0.94890827995132731587
-0.79879054378301694861
-0.84830355184283579018
-0.79639751766048860748
-0.55410079951461632675
-0.58293190009756523651
-0.52802187001861866644
-0.75540749604323620403
-0.69981182776252803812
-0.71681050054851225273
-0.59709592353205298565
-0.55979312252094159952
-0.62130313874874276703
-0.75780052216576465618
-0.55040660256383322491
-0.52063347611705224072
-0.57751610033010836176
-0.94957512163403756666
-0.89848340158536488254
-0.89915024326807513333
-0.84897039352554604097
-0.54021329931899697563
-0.50121999087565005659
-0.47441811173268133572
-0.52729892037164771690
-0.65235587407566153484
-0.62189859317477913514
-0.66935454686164574944
-0.59084585784786036733
-0.49752579392486678822
-0.70109612818041733284
-0.68538175581232241296
-0.74208614979766962527
-0.94957512163403756666
-1.00000000000000000000
-1.00000000000000000000
-0.84818411909397739556
-0.79800426935144841423
-0.79721799491987976882
-0.65364017449355071854
-0.47783803466859414710
-0.42765419931856962776
-0.45103615552562548174
-0.74129987536610109089
-0.49190234010076805404
-0.46317120408448392288
-0.51148216330271278895
-0.44894384870979131552
-0.42346958568690129532
-0.47205153090197676802
-0.57171663711084130810
-0.54066390178392254029
-0.52153468104690348106
-0.94969959095514733249
-0.89927471258918489916
-0.89939918191029466499
-0.44332039488569263685
-0.84830858841508716139
-0.62499187592880289799
-0.59325029461003131459
-0.56460199604528338302
-0.52101408304991503329
-0.47270312383168616721
-0.48223504357888841154
-0.50188486231289597406
-0.42744170100987000094
-0.40405974480281414696
-0.38046529028705861064
-0.40196743798697998074
-0.69869298426132298019
-0.74795548959060131899
-0.69203737003682275208
-0.54306833854609348755
-1.00000000000000000000
-1.00000000000000000000
-0.94969959095514733249
-0.59704988654573276641
-0.64121582117902753417
-0.58082594129550813022
-0.79917084096637125423
-0.84928501143833301512
-0.79819441794312551153
-0.39933440942926889949
-0.37519923317163655918
-0.41918521862806024103
-0.64787143540352787330
-0.74893191261384717272
-0.35857820726476596906
-0.38217266178052150538
-0.33669112424247338300
-0.45457761294863152646
-0.44504569320142928213
-0.42692018231837469688
-0.51186505518691272076
-0.49033139768772271427
-0.45912811432854200300
-0.35874726684247681963
-0.33702924339789502861
-0.38024941454239813421
-0.46127566759661642326
-0.44031629161434437947
-0.48092548633062393026
-0.40105970774500565579
-0.35611423828476579390
-0.94949515089751423957
-0.89919474185266157207
-0.89899030179502847915
-0.84908057138069992220
-0.54930903997741364897
-0.53308509472718901279
-0.50156819340909464255
-0.44972220297144316348
-0.43361823696635953818
-0.60214332038905893363
-0.60723675423238521187
-0.65296486924685415154
-0.48034815386881835053
-0.70039832253575040610
-0.74978458175106088568
-0.69954565339853669315
-0.31626381239544598678
-0.29583650054841859056
-0.33815089541773857285
-0.31643287197315683734
-0.65381753838406786450
-0.40083034147442309081
-0.37496986690105404971
-0.37474050063047154024
-0.94949515089751423957
-1.00000000000000000000
-1.00000000000000000000
-0.33496064249037482696
-0.31587564760350406168
-0.29472205180911303923
-0.40752839612240798761
-0.51712598147587851560
-0.55708793401080569652
-0.50934708744248657908
-0.79783760677961645946
-0.79650437259286177571
-0.84774733719394512743
-0.56218136785413186374
-0.74845134756430609091
-0.41937014434669084295
-0.40996423298959205894
-0.37961217436483968291
-0.42817218014911451185
-0.46487018677910457720
-0.44365014723882822967
-0.29515592523943690040
-0.25362072623640036229
-0.27472861339240950418
-0.34305325075757064912
-0.34328261702815321410
-0.31136600088466981351
-0.30304402634689142637
-0.37717633749765561157
-0.27795914605398241992
-0.26008179155954630479
-0.29855551747872066670
-0.27740192168432964426
-0.60522427701877434814
-0.60321179980516337338
-0.65180506117045688974
-0.89657539694888488402
-0.94828769847444238650
-0.89778284937195662607
-0.41721196680132377477
-0.37745399681947267023
-0.37529581927410560205
-0.84653988477087338538
-0.40173399971161005695
-0.47583288453615801838
-0.46805399050276608186
-0.43453978759643757668
-0.56213962317157450954
-0.51708423679332116141
-0.51704249211076380721
-0.43135598387277607202
-0.69095902932906849703
-0.74373170096096519188
-0.69567867593240939605
-0.56012714595796353478
-0.31526472637631020035
-0.34743845037057496938
-0.34500261350339089805
-0.25673099008844030289
-0.23562310293243118875
-0.21762547962846201521
-0.64708541456711587969
-0.31331536363049000693
-0.23885363559400416000
-0.27232751036486324558
-0.24993296892061347969
-0.28064948490264163272
-0.23673932062800240317
-0.26573068621855772120
-0.24841055609377435398
-1.00000000000000000000
-1.00000000000000000000
-0.94828769847444238650
-0.78805757539051246585
-0.84231648616969867494
-0.79228097399168717629
-0.43337953212200386321
-0.43221927664757014975
-0.47467262906172436043
-0.47463088437916700624
-0.24333614477430792755
-0.34376368378884947230
-0.34592186133421654048
-0.31223154830359339806
-0.73950830235979048144
-0.39577707693481933848
-0.36933889649731488358
-0.36338197372052422063
-0.39896088065848089865
-0.31374813733995177145
-0.19696392452539429607
-0.21496154782936344185
-0.17630236942232654918
-0.51208642858427055877
-0.50713036505777719931
-0.55517108243147028634
-0.28400715525459291344
-0.25664830962451601337
-0.28595651800041310686
-0.63909945039474558293
-0.59522583563279296559
-0.58723987146042255780
-0.25329063927256473265
-0.20161485285689351166
-0.18560422608532498034
-0.22284300882243562869
-0.21117177335666370563
-0.94651888833580932747
-0.89480658681025182499
-0.89303777667161876597
-0.84054767603106561591
-0.54718511825909987856
-0.30079115891608615430
-0.33804348909509585042
-0.30651135360983977618
-0.39363364669114486727
-0.35272750578585215786
-0.39247339121671115381
-0.33208656631830518746
-0.35805473975318818924
-0.47026411484424229803
-0.42785250711264544154
-0.42348573757772078885
-0.66442486571513992288
-0.72624122055282613886
-0.67769194752210415444
-0.21603034338177795615
-0.19532136613555350912
-0.22262716752808348053
-0.46530805131774899408
-0.28456929375873130095
-0.25387386114115234603
-0.28305270472237287205
-0.62583236858778124034
-0.15964732590626212749
-0.14299228239019770581
-0.18030888100932984663
-0.25526108538283420746
-0.16429825423776134308
-0.19046279611043925861
-0.22629130791669185840
-0.20264964691277023712
-0.22964897826864311137
-0.94651888833580932747
-1.00000000000000000000
-1.00000000000000000000
-0.78462746272030825523
-0.78119735005010415563
-0.83711756336086140529
-0.19898550652416185924
-0.38687151117613438611
-0.34712562574527539017
-0.34152374570469867798
-0.72281110788262203926
-0.38250474164120973342
-0.27751414370453419966
-0.24279673910547500126
-0.27179394901078057778
-0.53968794790740814982
-0.49963319470608547057
-0.49213602435439374183
-0.29258649991478591357
-0.28438184091348572835
-0.32388190731700494673
-0.31855467334966891535
-0.24833530012331367365
-0.41854232480286657214
-0.41359891202801241095
-0.46036463854289477737
-0.13955736340698171594
-0.10281235739163688270
-0.12290231989091729425
-0.57309227932825146379
-0.55894468719608036977
-0.61168477645561014633
-0.20061914769826691418
-0.22724650441970961623
-0.22863372866139147765
-0.20163439730551857565
-0.16264617056212926638
-0.13968811503893352466
-0.16750474058724351689
-0.45286746819120304863
-0.12733623394984164290
-0.11168018550948559386
-0.14864220579740528017
-0.52554035577523705580
-0.88989822541209984141
-0.94494911270604986520
-0.89146800104185930369
-0.83554778773110194301
-0.22729478076417730659
-0.26404296984013175820
-0.23504575993482615393
-0.30598652252296398846
-0.31158840256354070064
-0.27044929934122929893
-0.25583831083883151747
-0.17377623944798550881
-0.15223111276041750850
-0.17744037983659388669
-0.12568415027420956620
-0.27741557012735751364
-0.33591783536800562393
-0.37970178647286323415
-0.33872079053635217871
-0.66778120724497047611
-0.67113754877480102934
-0.72616744941245259248
-0.37475837369800901744
-0.22210300005302169302
-0.19033213896489106776
-0.21656443903518302063
-0.14595961389967551658
-0.56288348958651879261
-0.56682229197695721545
-0.61562357884604856917
-0.19547564333157899097
-0.10719586149555590526
-0.08710589899627549371
-0.07139944060091411859
-0.09153981305519985623
-0.17705289264722356979
-0.15145613838167690246
-0.17603764303997190832
-0.61897992037587912240
-0.40668747369511676348
-0.44941174902475522490
-0.41014319286156458721
-0.94494911270604986520
-1.00000000000000000000
-1.00000000000000000000
-0.15184362557104719160
-0.51953348446184666187
-0.48612915304100334790
-0.48012228172761289846
-0.77683102006473847556
-0.83336462273841915849
-0.77901418505742126008
-0.27153298700286854217
-0.30652836635378361008
-0.27099114317204892055
-0.21055785938869131524
-0.17831897967190765697
-0.20280688021804249566
-0.72398428441976969694
-0.30372541118543705529
-0.25040665332044748093
-0.22186312324579327004
-0.21643146572740920575
-0.24344038253431926622
-0.18432555931839936236
-0.11178461716460566522
-0.09778065239988170676
-0.08388111929027780578
-0.44340487771136483097
-0.52347228685228508471
-0.37499145460628852122
-0.33615091627628512772
-0.33638399718456463150
-0.12741124044753376898
-0.12113974158679176318
-0.10259136813465000171
-0.37153573543984069749
-0.05150052398474726234
-0.06720698238010863745
-0.03160160736858040609
-0.14208469900514142381
-0.16620841898501625966
-0.17135192335170418287
-0.14677041869340917701
-0.06070266316323519318
-0.05000588572555627470
-0.08084303561752093081
-0.94326413183512514138
-0.88821324454117500657
-0.88652826367025028276
-0.09323624371246390374
-0.83167964186749432365
-0.12960543800179355478
-0.12999292519116387168
-0.10775473762191022098
-0.56681187458504211918
-0.56680145719312702290
-0.61896950298396402612
-0.06694350250791704371
-0.20042150077128478847
-0.17593360022514997754
-0.17354822077839227035
-0.19498984325290075192
-0.24722603079711941154
-0.24668418696629978992
-0.22291907459137030867
-0.21967527015938975721
-0.66687900369580288551
-0.72185501188027068054
-0.66900827623530201294
-0.10517305287828010441
-0.31012799199975005227
-0.27793556781718153914
-0.28433814863149453611
-0.45699624955463097331
-0.51190927076579406663
-0.46855926564112193589
-0.31036107290802961156
-0.13486451863956730457
-0.15659174915573748077
-0.16259832880222918616
-0.44271959030908664134
-0.40600218629283857386
-0.40531689889056038423
-0.61684023044446489870
-0.13847460882235435031
-0.01369976614720673676
0.00420207507416693344
-0.03359868276337359128
-0.34218705595162968169
-0.37443726482337325034
-0.33928552656809718435
-0.51189885337387897035
-0.02290190532569466933
-0.12232690534621068479
-0.09319767231074445324
-0.11764118565794293159
-0.10047620496632733711
-0.94326413183512514138
-1.00000000000000000000
-1.00000000000000000000
-0.76243069053492495968
-0.82447947710258762122
-0.76963085529983166211
-0.06834255199793537461
-0.05280398470559295038
-0.07769767642012147257
-0.43115657422259567877
-0.37375197742109500521
-0.71465484711536397811
-0.03901993441331490925
-0.06145052685179636098
-0.04451291006943559198
-0.15797025652464347090
-0.13762153337737925707
-0.15558487707788576371
-0.25301199518447775594
-0.26227249109367312130
-0.23796553488792404618
-0.18047856030483805378
-0.18740889983128383722
-0.20192018277934653536
-0.26867507190798611827
-0.20516398721132705907
-0.13624302600847326694
-0.08279055476285690496
-0.06298974139106382208
-0.08537223950648702153
-0.29129419979050319434
-0.29825025094951190807
-0.31731712406703826979
-0.04591195955945392981
-0.32021865345057076713
-0.11505939786467148100
-0.11866948804745854062
-0.09525427708977565744
0.00380865013147830070
0.03921890763153700749
0.02171049135285197176
-0.56871409244099324631
-0.61779654806839801040
-0.56775777481706013461
-0.05789686304832838970
-0.09422597470026006228
0.00252512837162188362
0.00084818166907683391
-0.02457885202823972132
-0.51894212347052437462
-0.46403951965127632207
-0.47108278974792167082
-0.94423989088116599966
-0.88750402271629114104
-0.88847978176233188830
-0.01908587637211903859
-0.82545523614862847950
-0.08721412467576315775
-0.06667351172961609451
-0.07993559202018027388
-0.38278430945497776694
-0.36025172001939520516
-0.40862398478701311699
-0.06483162656033995830
-0.35121938798551244343
-0.65127165244289120238
-0.70685117148890808103
-0.65907532806934709946
-0.16409699959306967010
-0.14613365589256316346
-0.15464577840774706985
-0.51989844109445748632
-0.17102733911951545354
-0.24466383126169738427
-0.22961737096514367451
-0.23631566733891704035
-0.19878029350240816742
-0.21015168717353249761
-0.21653538088245138926
-0.26364651588263948723
-0.27428103658080121852
-0.27930959260614784956
-0.60999287244194222435
-0.10535892159470429397
-0.12149022748604176858
-0.12011172011713580621
-0.28626564376515656329
-0.10030659934223998264
-0.02234266833246092987
-0.00566540225160694789
-0.02923469347859995043
-0.22323367725622478286
-0.31221614060171082317
-0.32720159827667028019
-0.30523319577561136562
0.05928446363650149986
0.07935001964146598530
0.04177604735781646067
-0.38144528904597541086
-0.42626403939694856859
-0.41922076930030316433
-0.05875576025324816959
-0.07700501867151191004
-0.07597671628199631488
-0.37084850453268530801
0.03044344940656582010
0.05668482373896470417
0.02876650270402076812
-0.03093381275090655719
-0.00906364079622016400
-0.03602669109364199651
-0.00240861029126505704
-0.33623393031055304192
-1.00000000000000000000
-1.00000000000000000000
-0.94423989088116599966
-0.05549594691251889117
-0.04431838209542168783
-0.06875802720308307747
-0.78559888558368007327
-0.83703933367300598078
-0.77401478805930246097
0.06801742169021535167
-0.67822805955171938663
-0.72032937504332217316
-0.66474985599730529451
-0.00736452152391355551
-0.13225585591866417801
-0.12689017845994909894
-0.14076797843384808440
-0.02730876093967723323
-0.04699113633464666040
-0.04514925116537052419
-0.05153707117433492524
-0.25843148682682648420
-0.25008332290404611253
-0.26385097846917515696
-0.11612455002732668952
-0.18718909057685828579
-0.17080752986508990210
-0.18696928132243276210
-0.48066221333564673746
-0.52468815288832004740
-0.47587250154178417638
-0.26906600752498821549
-0.19856048424798261598
-0.73191347256769967444
-0.61463284631289760718
-0.57335406631194851812
-0.57799404018290390095
-0.28048855525197535776
-0.28669607392314955252
-0.29247316243633070254
-0.01818620086794869861
-0.08511968537886070718
-0.07498509366794575692
-0.09017200763132501851
-0.29945610726243021560
0.09389179713765502533
0.07382624113269052601
0.10843357463384405148
-0.06687042696059695979
0.02231704974979938083
0.04378591783052192959
0.01906025778945748955
-0.03581357151754946400
0.05023537078474331341
-0.43059574329929850567
-0.38577699294832540344
-0.39010869685067539603
-0.21769542549822312738
-0.22523916382291378491
-0.23077741558091541263
-0.34464415152533500741
-0.32062636181649278866
-0.32903658303127475415
-0.35524093603862505475
-0.52932812675927531920
-0.62811104986731169930
-0.94718849916196379279
-0.89142839004312968143
-0.89437699832392758559
-0.83998794195380388494
-0.43538545509316106674
-0.27527352619616235474
-0.14630904770171668239
-0.15047741305473189000
-0.13659961308083290454
0.01655466274550441985
0.03877472774261579019
0.01485554347319781310
-0.20610422257267327351
-0.16663916451207472225
0.09798630617089094941
0.11662259270031591352
0.08665370821964030190
-0.24572235418021359799
-0.25512904102151018337
-0.25949000974534264241
-0.10459168176035335551
-0.10382444192600243094
-0.11535731019297576494
-0.02611719456612789092
-0.04243647740968803372
-0.03521778833077478937
-0.08940476779697409393
0.04128032278656885989
-0.24018410242221199802
-0.30665762141100250115
-0.29389758807172189359
-0.30109910222029423466
0.00391724649867365889
0.01689813379356748177
-0.00520531357305487573
-0.69447090125140176209
-0.74003489341754091768
-0.68634948040156062987
-0.01645845030742762796
-0.00560813967517802530
-0.02496326088529985526
0.12639415196780023898
0.14435472930175641260
0.11185237447161119895
-0.04851980338318279129
-0.06175244852556427411
-0.05363778181821547697
-0.31179231690616704409
-0.31136849321062320950
-0.32020253812094900958
-0.33187677672627757808
-0.36099273678847648705
-0.35666103288612649447
0.13048866100103617693
-0.33045667987877613836
0.07757534130051724208
0.09846585886206976612
0.07112588834629585133
-0.12506674481385954278
-0.59538410966858845708
-0.63680608461015397737
-0.58668907492574617901
-0.30623379771545872208
-0.03731849897465534110
-0.27179918133529712421
-0.27974738420141909145
-0.28322172906228432199
0.10754422578119283982
-0.01586266712065295681
-0.94718849916196379279
-1.00000000000000000000
-1.00000000000000000000
-0.48763718770431407901
-0.49461216207298147607
-0.53630310112794266075
0.04245027770982572057
0.04612582767703565095
0.01853109344040774348
-0.84434508410272246515
-0.78995602773259876450
-0.79431316988151745573
0.00564499705919472780
-0.20078287152461724019
-0.21459646172680171827
-0.21991781277485775159
-0.26743821261146460966
0.03151198073530156463
-0.64492750545999510958
-0.43915850179289750432
-0.39388174355041183361
-0.39765479025014827119
-0.16166870460653806618
-0.17702836151135944998
-0.18199882141689610604
-0.74439203556645960891
-0.29042324321085666305
0.06361707486380235865
0.06612266990775542141
0.08845942198498892017
-0.07009510677661380529
-0.06520511988528185365
-0.08451478090564214229
-0.54499813587078493882
-0.25107344136220338671
-0.23612850276290520135
-0.24701784170289659004
-0.05686246163423232247
-0.44613347616156484587
-0.13548072599630231472
-0.14089488684900949855
-0.11965258396115237283
0.14209279223495119293
0.17575200983605832050
0.16005336956890736655
-0.19581241161908058412
0.09346264042352933621
-0.32823799396336883483
-0.35917334540702211543
-0.33005738534482320645
-0.31171656605855818656
-0.32037657454491647036
-0.31154252963459072578
-0.32179667139241785456
0.14565631337704326720
0.15952238167776353062
0.17469003405377064864
-0.23080715171484916803
0.00000737549107202636
0.00562289065732207802
-0.01024715195440290688
-0.36294639210675855301
-0.94833802722991544787
-0.89552652639187924066
-0.89667605445983089574
-0.15625454375383088235
-0.02465009599592814238
-0.03658494968955546683
-0.02538364528102801665
0.02371191182385531948
0.03052568985414315719
0.01245877508948256551
-0.84549461217067412022
0.12254185822829768981
0.13162022514742077739
0.14661785759452561351
-0.30391203827673818338
-0.30672497433318218762
-0.30904673377190272632
-0.26374887075092984245
-0.27236870048034950154
-0.27605804234088426874
0.06195282065540433369
0.08513091356819288413
0.06562837062261427101
-0.29149077609255619192
-0.29629493915642524104
-0.28561908014698766944
-0.60298087961497448539
-0.61057764956136040269
-0.65252427540638113790
0.08679516777659090909
-0.25969327109162304579
0.05913505577879858699
0.03801659478618303611
0.05263044172791711550
0.16065394582414813107
-0.04492760794060499802
-0.00951360266930303261
-0.74689041902059272182
-0.69696928470553487500
-0.69946766815966809894
-0.09298997760281811631
-0.09840720976441028056
-0.07909754874404997804
-0.11423535179956020857
0.01807429025573261891
-0.55443337619237897940
-0.50404740239457557216
-0.51348264271616961274
-0.30922077019587018709
0.17596035443101212814
0.19165899469816308209
0.20756597956026784368
0.04483037281647087036
0.14939405466508501319
0.11892673832503697362
0.12392995676357738966
0.19112800680701924616
-0.41166859491071272625
-0.45314037849184707341
-0.40466169258043049872
-0.31600044263433346714
-0.31781983401578783877
-0.30376289130529815496
-0.30773972868192817076
-0.65502265886051425081
-0.30131632985083178777
-0.30153355748136939640
-0.30412926590727579201
-0.28192973828645284673
-0.20781730600000000719
-0.21120688386340086273
-0.19242283375567972858
-0.29651216678696279416
0.14800595612980532723
-0.22721464536340085782
-0.23983282899999999738
-0.24342533535144827983
-0.56203014613876500771
-1.00000000000000000000
-1.00000000000000000000
-0.94833802722991544787
-0.15295007499815116425
-0.17041942400000001379
-0.17372389275567973188
-0.32692868675212627405
-0.36229173850113727262
-0.32758334035774755444
-0.79375482841510136556
-0.84521544143746618616
-0.79403399914830941064
-0.46257561881344116950
0.08808872262882236348
0.09104653168945185671
0.06858617968324375036
-0.05089039283434323990
-0.05804775635981254678
-0.03777024441513569114
0.07509079373412522185
-0.74661124828738478776
0.10787641663012892401
0.10954067083852694897
0.13062191969206496389
-0.22382506750000000229
-0.26563680800000000204
-0.26900275424017472403
-0.25632732485144826828
-0.36929864083141950015
-0.07194018521858067117
0.01145423682077384951
0.01728558298422562187
-0.00368225650585126026
-0.18911836500000001049
-0.30263207949320325429
-0.29853918465322432096
-0.30512787535589125376
0.03585450383755959397
0.02073869724744083556
0.03319009684585137732
0.14000798717857498854
0.17151096192062628698
0.18554705015024880455
0.19640406624672696045
-0.12860776800000001119
-0.13204424699815114908
-0.11079887280140907069
-0.25273481850000001359
0.22489604380464245370
0.20898905894253771987
0.24222610804901709147
-0.30115103797926123796
0.22157502105926299429
0.23558406255825814490
0.20513704830601439677
0.04758920123177922540
0.06189388419410694203
0.06465271260941529707
-0.14951359600000002636
-0.27846481674017475871
-0.28456093300000001589
-0.28802585454627810391
0.17289906045590597294
-0.29649380266403124740
-0.28922471402276428432
-0.30873135399306655957
-0.30807670038744527918
-0.61928280984320538405
-0.65937523900143668598
-0.61493022970228294888
0.02657004341089260618
-0.94849971357123119553
-0.89683774080114653238
-0.89699942714246228004
-0.57296095755675957584
-0.52441345413416418086
-0.53534426555215874899
-0.84537712777878182280
-0.30384618019146847345
-0.30125047176556207784
-0.30096738604975475928
0.21599406440249255268
-0.29882431824068467208
-0.29380292754627812535
-0.29611507900000000326
0.05025360822348744205
-0.27509887050000003672
-0.00780434488148590289
-0.02934736885791457139
-0.01622722043870702263
-0.43261380593029807873
-0.47304822432323384573
-0.42214120042050540249
0.00474061905136985949
-0.29975328535148954012
0.12671869018041032051
0.10888261093493109555
0.10592480187430160232
0.12867030493623765608
0.07814784059265023064
0.09410357854797685162
0.09716062540650186041
-0.73720976759795109334
-0.69006618747023451554
-0.68066470678080082113
-0.06717781601717162654
-0.08346523919999999930
-0.08822760840140905780
-0.29033800600000003733
-0.33374040660063353236
-0.37270450075567312931
-0.33033454667637990321
-0.57731353769768212203
0.08090666900795857874
0.18236157570378444537
0.15649174769792470463
0.16587781518443472928
-0.10603650359999999830
-0.64997375831200310259
-0.29054430923351870497
-0.28254943381381314449
-0.29315616255955567748
-0.48397903574122841386
0.18186611193529064745
0.20537111772611160720
0.21433816920549628171
0.25733014937555009904
0.27243419070208313437
0.24000008513117548903
0.25400912663017061188
-0.28588707391828871440
-0.38317710626546580555
-0.30076677874068469265
-0.29999999999999998890
-0.30048369302487737409
-0.29805753950000002384
0.06304402400317500599
0.04016480349370031566
0.04944926392036730345
-0.94849971357123119553
-1.00000000000000000000
-1.00000000000000000000
-0.30112383340773729579
-0.28227184704305630092
-0.27531898006334831752
0.19834987245464036354
-0.84529729214124560421
-0.79367499277756514697
-0.79359515714002892839
0.06384836830629514459
0.22604715596495564278
0.24563715412072123501
0.25569024568318432511
-0.03616100409999999793
-0.04352569846717162239
-0.02198267449074295041
-0.30452969333199092494
-0.73712993196041487476
0.12840483944097996760
0.13009098870154961469
0.11056876019550074264
0.11362580705402573755
-0.29592630935608110754
-0.29088523266240745579
-0.29471220865781588838
-0.05981312164999999514
0.02705773783266332555
0.03682989268110102576
0.01451277389980756144
0.16165254319329294685
0.14418561668685164756
0.14613723144267895537
0.17200705944853869611
0.23501420744434031729
-0.55056504775467174362
-0.56578582995718484927
-0.59253431990019511666
0.04993695834213801588
-0.28889219024088075294
-0.27924519582853718491
-0.28089731482117519246
0.08285534553894191578
0.09910930193748519745
0.10105797846846853449
-0.62322526836899283520
-0.46308805438706157620
-0.49921615996961016259
-0.44785093015867982746
0.27487527682364559789
0.30752444559827407655
0.28997931815017863322
-0.28506521424547232035
0.26987710585979890476
0.28830216993171142725
0.30417014916133966462
0.08205100123582176330
-0.26369189146413329894
-0.27645830274344879163
-0.27312066263897322171
0.27993019742226199487
-0.26950543576374080823
-0.34586018042448291032
-0.38923699317739046677
-0.33980029351255824910
-0.29805753950000002384
-0.29611507900000000326
-0.29854123252487740903
-0.94864363304502907770
-0.89714334661626016221
-0.89728726609005815540
-0.84544121161504359740
-0.51443694217212321274
-0.29350015583120370177
0.23521746077844324363
0.20878951824111385838
0.22477781499196974879
0.01207978200000000071
-0.01204061104999999861
0.00213771855925704891
0.02445483734055051150
-0.74438878579280420844
-0.68792356061319015481
-0.69518241444557959952
-0.40447411740577221551
0.14569714873179717696
0.16467560728318400565
0.14738329799236682405
-0.27153968237919734463
-0.26776038469504631623
-0.30075039564783989654
0.13172343160266591910
0.13335587450378222352
0.11525824995514204196
0.16316407523823847625
0.26995029548383120410
0.24214423234466375678
0.26282027058350776461
0.11720692648612537901
-0.59318645326935004469
-0.63692558002507548842
-0.57948614161326750249
0.19357473939976560517
0.20478790309574676498
0.18322022314451985592
-0.30681028255976461327
-0.27399279654894992397
-0.27234067755631191643
-0.26543615928408664795
0.08198572639242496241
0.05940780953676299408
0.07251487519779997726
-0.64418443385746482210
-0.26456402537410994569
0.32207735903813833334
0.33663027247800259012
0.30453223159004283449
0.22000268193709499043
0.25258387813113725162
0.32040021081967112737
0.10927937184137284654
0.08616169792227393320
0.10516867515492069052
-0.27600823930554796437
-0.28182825772248309981
-0.27277128278255879934
-0.25892090341058654479
-0.25310735911097903550
-0.24252282675782479981
0.28262977777162473503
0.30686972951070240478
0.30956930986006514495
-1.00000000000000000000
-1.00000000000000000000
-0.94864363304502907770
-0.84665942203928712395
-0.79481336756427245493
-0.79603157798851598148
-0.25514160572643557190
0.18473175518946538531
-0.49376532359030567143
-0.52977557677374531586
-0.47842668898868362382
0.09563254911689890447
-0.74560699621704773499
-0.29033800600000003733
-0.28456093300000001589
-0.28772308283120373584
0.28975980267194817452
0.06000770810000000122
0.03604374504999999923
0.04841880039055051349
0.14782112903954774952
0.16511343833036493112
0.16555126937754585659
0.14945357194066405393
-0.42858570804913775909
-0.36997177106784845391
-0.39408336171121399749
-0.54347588842982785806
0.07099671724621248181
-0.27866610789127943537
0.13615705114157683475
0.13895822777937141823
0.12000810312391997636
-0.26150664636615184033
-0.26841116463837710882
-0.25757713344821708823
-0.30487909955140146678
-0.26582920168668322525
-0.26389801867832007876
0.12411879981037213239
-0.26517420811538794378
0.35326126819293413028
0.33870835475306992901
0.36989226390786572596
-0.25536040517383018500
-0.24528465106357372205
-0.25448827126385353825
-0.44392434265075986222
0.36720717668612690154
0.33568866292373328308
0.35191872458206474583
0.28643102320378899250
0.26082424199111609031
0.27819065934381009830
-0.24390373891069927481
0.24558557242205758531
0.25595368406567192698
0.23037079358070933210
-0.59966276983955801860
-0.60613908640976610354
-0.65066075042767290704
0.32814405085880771207
0.32544447050944491640
0.34671879185755022368
0.20098895413031650503
0.18283228070675025534
0.20288842861303163501
-0.94830113473157906512
-0.89694476777660814282
-0.89660226946315813024
-0.84631692372583700035
-0.23371216310978609743
-0.22490149946174739504
-0.24633094207839684175
-0.34491224563179956331
-0.32080065498843401972
-0.29574112955238507361
0.35696298427183859037
-0.74807527130313600239
-0.69765068953166786692
-0.70011896461775613432