VARIABLES = "X", "Y", "P", "U", "V", "divergence", "vorticity"
ZONE NODES=7045, ELEMENTS=13692, DATAPACKING=BLOCK,
VARLOCATION=([6]=CELLCENTERED), ZONETYPE=FETRIANGLE
-1.00000000000000000000
-0.95910711773086587684
-1.00000000000000000000
-0.91821423546173186470
-0.95910711773086587684
-1.00000000000000000000
-0.93741735651977220467
-0.87483471303954440934
-0.89652447425063819253
-0.90908793151604139204
-0.89996162757035103041
-0.94998081378517551521
-0.86825315720199169878
-0.84656339599089802661
-0.81829207894225153286
-0.85912685325630122612
-0.94998081378517551521
-1.00000000000000000000
-1.00000000000000000000
-0.81373174951458349113
-0.75262878598962268395
-0.78546043246593710840
-0.83642188113410631534
-0.79558710682005662207
-0.77288213469786160026
-0.89681057035240319131
-0.89365951313445535220
-0.94682975656722767610
-0.83327082391615847623
-0.72452845309214652936
-0.69642812019467037477
-0.75736009956846095381
-0.73465512744626604302
-0.94682975656722767610
-1.00000000000000000000
-1.00000000000000000000
-0.69345419629029914077
-0.63427960659097559759
-0.66535386339282298618
-0.79347181327568994114
-0.84356566320507264667
-0.78317697398677577070
-0.70286119969550808761
-0.66463419244391253038
-0.63284026469315468599
-0.89727962296680885412
-0.94863981148340448257
-0.89546956805063215867
-0.84537571812124934212
-0.73802931508085101164
-0.72773447579193684120
-0.68258681688601208215
-0.65771354078958332856
-0.63627478502508161284
-0.60520052822323422426
-0.57612144985549273990
-0.60448085727432365744
-1.00000000000000000000
-1.00000000000000000000
-0.94863981148340448257
-0.79812985184770246505
-0.84770473740725571510
-0.79580083256169620309
-0.54888532207473450519
-0.57796440044247598955
-0.52164919429397627049
-0.75505312447885974958
-0.69961062628402082009
-0.71663443568202955802
-0.59605915728107083940
-0.55927804986898699280
-0.62093243337749948196
-0.75738214376486601154
-0.54642098957600837572
-0.51672052929652401154
-0.57478039699483929326
-0.94925598883840323072
-0.89789580032180760227
-0.89851197767680646145
-0.84832091476225446325
-0.53799928958275544666
-0.49400449318975070412
-0.46635979208552519326
-0.52124062097050893883
-0.65239760347679753849
-0.62220839006758299483
-0.66942141287480627643
-0.59074321996828493830
-0.49154016069102457465
-0.70081875366120327531
-0.68500307164037699259
-0.74156646174403972882
-0.94925598883840323072
-1.00000000000000000000
-1.00000000000000000000
-0.84738175826709238869
-0.79719069535254039049
-0.79625153885737831594
-0.65360573085397999371
-0.46888524689058386219
-0.41612129948719145389
-0.44124054578635829582
-0.74062730524887765426
-0.48781895976852862606
-0.45891739024053318508
-0.50909772005476006118
-0.44015301083231533896
-0.41394622957910548466
-0.46533337943781472035
-0.57188119309705798265
-0.54041602299775992613
-0.52155399612653297048
-0.94933792443220832435
-0.89859391327061155508
-0.89867584886441664871
-0.43643180990981933487
-0.84746369386089748232
-0.62480647862581184526
-0.59340913783941484638
-0.56460988561124680896
-0.51989271883144982933
-0.46971238901722289771
-0.48050738779391261035
-0.50103069196022276266
-0.41609223631889147299
-0.39097299001972463106
-0.36582468055225775272
-0.38988545506568161869
-0.69755014823469696505
-0.74690084354603758499
-0.69127660993753692331
-0.54308194086888983421
-1.00000000000000000000
-1.00000000000000000000
-0.94933792443220832435
-0.59617263050721835960
-0.64058785107379767609
-0.58039125805923252877
-0.79798729064705664626
-0.84833156975573664749
-0.79711941475221748110
-0.38902488532257240017
-0.36410354106603926017
-0.41151046565328619486
-0.64686138937095760681
-0.74776871944087686117
-0.34182016113439561700
-0.36696847060186249534
-0.31781564171653353679
-0.45124449704206437417
-0.44044949826537471704
-0.42198160629021619350
-0.51123763225798279919
-0.48970968751562587995
-0.45786537890471878942
-0.34253819646198713222
-0.31925171237171645622
-0.36659897097541094269
-0.45920559302736763119
-0.43790379826082259651
-0.47972889719367778349
-0.39304257367812772683
-0.34167762671887785819
-0.94913652879521914763
-0.89847445322742758300
-0.89827305759043840627
-0.84813017411874747076
-0.54817517204623777971
-0.53239379959825194888
-0.50017771358525708880
-0.44788458858277069297
-0.42994270227551939501
-0.60092215256471870344
-0.60567167462221904728
-0.65161091142845806168
-0.47902154624498793911
-0.69894378398638457028
-0.74846553731672060827
-0.69824696611054082318
-0.29538196685360440519
-0.27294829199067521808
-0.31938648627146648540
-0.29610000218119580939
-0.65230772930430180878
-0.39445463815754577830
-0.36551560554545736714
-0.36692767002487541861
-0.94913652879521914763
-1.00000000000000000000
-1.00000000000000000000
-0.31870168037365298463
-0.29627576602649152715
-0.27329981968126665359
-0.40241573414284903532
-0.51504419766230380429
-0.55560841408476102643
-0.50761095562378044654
-0.79665867156481606770
-0.79533005248257548914
-0.84680155503650689219
-0.56035793614226148129
-0.74713691823448002971
-0.41606705425210022131
-0.40608626393015212486
-0.37426872959948159769
-0.42492827634322410946
-0.46255299496424062689
-0.44139682762397147719
-0.27209135290118852124
-0.22636706408584347794
-0.24965767803825933413
-0.33106903348812988241
-0.32965696900871177544
-0.29521039695138429071
-0.28425510831632549991
-0.37059819981217850815
-0.25295225461408660239
-0.23295621723749795895
-0.27610396480460719371
-0.25312801845938232015
-0.60355597763154089641
-0.60144028064086285656
-0.65019203231362365791
-0.89594638375898882909
-0.94797319187949447006
-0.89710972067471361768
-0.41386638311871992713
-0.37206805846610130351
-0.36986738733272100932
-0.84563821812078221463
-0.39739783183797255939
-0.47294658187302041075
-0.46551333983449705300
-0.43084896608373707272
-0.56015179795282266095
-0.51483805947286498395
-0.51463192128342627463
-0.42788862121348059109
-0.68954334096326030945
-0.74243669672291789929
-0.69424356247482243987
-0.55803610096214462111
-0.30293260644230207701
-0.33860066802089183735
-0.33493013823358874781
-0.22947236443348367763
-0.20618175048106779368
-0.18599643687629213717
-0.64549181080206152750
-0.29907150169684315610
-0.20947632705689506194
-0.24841122191438269606
-0.22352262414749871078
-0.25936651054944148687
-0.20663226425796410446
-0.23996604196961537903
-0.21979424074773101783
-1.00000000000000000000
-1.00000000000000000000
-0.94797319187949447006
-0.78705485448408829541
-0.84150061912153861776
-0.79119245348333189227
-0.42961799162665348373
-0.42838701716956995025
-0.47171560741593687727
-0.47150946922649811244
-0.21507744420273139374
-0.33574899730042229162
-0.33794966843380258581
-0.30163060726812351842
-0.73829909772367430243
-0.39095211398043416828
-0.36342166947518261821
-0.35697595161764422711
-0.39391245885069064991
-0.30228160685521276996
-0.16336549210024037260
-0.18355080570501602910
-0.14073454732418858026
-0.50977585449984663679
-0.50491978771626699896
-0.55318003417856487225
-0.26501648163917918000
-0.23482256632697406928
-0.26887758638463810090
-0.63759297726036723297
-0.59354144709916845102
-0.58564261355747415649
-0.22917259523723637615
-0.16719861782528050442
-0.14840079877426889943
-0.19067850800588342919
-0.17751653151611651582
-0.94627008850522142946
-0.89424328038471578850
-0.89254017701044285893
-0.83979751574726557717
-0.54528120063687057772
-0.29058953774082807442
-0.33022846253677451411
-0.29611007250447579642
-0.38878157009500413643
-0.34671417410627120015
-0.38755059563792060295
-0.32378274467923617852
-0.35184506286195771363
-0.46744521638905950356
-0.42432276433213134137
-0.42025851149469273249
-0.66327110985995740844
-0.72516298217202290743
-0.67640722541160891446
-0.18280221296731030689
-0.15897216167665650932
-0.19124739291207759617
-0.46258914960547986572
-0.26921880720837987333
-0.23550500797445772516
-0.26856780762129062179
-0.62445686170871583798
-0.12184207947306872899
-0.10294961162194887772
-0.14447302424912050745
-0.23516378715071589722
-0.12567520519810887469
-0.15368648022546271825
-0.19689940267139355301
-0.17027618119528842300
-0.20254937376113124614
-0.94627008850522142946
-1.00000000000000000000
-1.00000000000000000000
-0.78373874548358046788
-0.78042263648307275137
-0.83648140674675786066
-0.16462417143597246616
-0.38279547999963869920
-0.34195905846798935190
-0.33720394282970750366
-0.72184687317151507990
-0.37873122716220009032
-0.26444383958620343300
-0.22725707190428340310
-0.25892330482255576651
-0.53802514803048728798
-0.49766373510988370921
-0.49040768250350041946
-0.28333095006068326205
-0.27607236238053844968
-0.31652415699909131064
-0.31139326824340485267
-0.23138103993937056413
-0.41577252320885016434
-0.41128653492300759620
-0.45810316131963729758
-0.10032008669033351533
-0.05990562605647843653
-0.08142761883921365018
-0.57162254584384797340
-0.55760247813022167929
-0.61043679399508954386
-0.17287743373206371222
-0.20419122085326071869
-0.20385000002951889075
-0.17157680746367606761
-0.12154512908438269703
-0.09468945939449649463
-0.12683081053557648810
-0.45084710871325400783
-0.08421502882415171642
-0.06548044602635456901
-0.10694062240031174116
-0.52400508031686099386
-0.88950329269668548804
-0.94475164634834274402
-0.89102173485356417348
-0.83496296458987906419
-0.21642365316323017299
-0.25350659545202913758
-0.22184036253375677417
-0.30159192455216543571
-0.30634704019044722845
-0.26597990627462331226
-0.24624800777188432521
-0.13453277635701363368
-0.11009339103737074417
-0.14018478611632959052
-0.08008495271042553876
-0.27102613432758088097
-0.33334857158554448420
-0.37680354154011863610
-0.33527625720762599393
-0.66677238028260110703
-0.67027365070524491664
-0.72534814359415888951
-0.37231755325427606795
-0.20185274821051474303
-0.16820048844657173315
-0.19772878017542755424
-0.10239142521593361246
-0.56168822555118902429
-0.56577397297215648031
-0.61452254141605688886
-0.17053896108931770881
-0.06363962967944940263
-0.04211763689671418204
-0.02432964773694993102
-0.04490504688165224828
-0.14232216362372740459
-0.11436814605216641394
-0.14362278989211507696
-0.61802381183870069847
-0.40520266798213411263
-0.44780517524281726605
-0.40824460145257085442
-0.94475164634834274402
-1.00000000000000000000
-1.00000000000000000000
-0.11223076854476857211
-0.51824609075645966527
-0.48464869294309903536
-0.47888970338269765126
-0.77617039194985504302
-0.83283684232327026553
-0.77829651421646395271
-0.27005723940291065377
-0.30363059111630907871
-0.26801857283876695526
-0.19578980082496275084
-0.16432252974564209858
-0.19037309145443614966
-0.72322202132754997983
-0.30170290549422756898
-0.24434569833648406290
-0.21452134372782993843
-0.21261903429242970387
-0.23929947028352649419
-0.16626150909610692974
-0.06310995378791590948
-0.04850544710384493974
-0.03153044818133531740
-0.44204618568241588195
-0.52233183817742712129
-0.37317314703403070553
-0.33420416536529917728
-0.33505975914505387037
-0.08103048954879182864
-0.07332852372735469693
-0.05196758806021289923
-0.37013121356359401926
-0.00370324026477346357
-0.02149122942453771806
0.01692316720740300387
-0.11304692031463267621
-0.14062370438060220468
-0.14296217702334818034
-0.11370753318339954507
-0.01086616420774452405
0.00259731932146088466
-0.03144156335244684131
-0.94306643749848073632
-0.88781808384682348034
-0.88613287499696158367
-0.04174901812077411178
-0.83115163347340836886
-0.08833700563775652437
-0.08619962813035869642
-0.06230586522334664173
-0.56584965402441156357
-0.56592533507666675785
-0.61809949289095578173
-0.01446656442993721550
-0.19312196013846871789
-0.16707139842967466681
-0.16982026711370723504
-0.19121965070306845558
-0.24721193213483694251
-0.24517326557069327175
-0.22436662486676323125
-0.21849282957959648144
-0.66604814443025384119
-0.72110926819005438659
-0.66816089756774932340
-0.05713672664177976701
-0.30871751485191190056
-0.27707184876059498535
-0.28408645811827937244
-0.45611015181462283286
-0.51094206239338968434
-0.46749992759866021430
-0.30957310863166664916
-0.11747330051534754514
-0.14089791513049482186
-0.14283689448095965302
-0.44160755179218785793
-0.40476403409190608862
-0.40432540020167806460
-0.61598673975346029952
-0.11526011041499011067
0.03685703477156246355
0.05679090233572192670
0.01623062729938599957
-0.34150689764530023362
-0.37335478281371714537
-0.33828332839517705199
-0.51101774344564476760
0.02969411082859140655
-0.08583997793886685712
-0.05731180982556730030
-0.08517936507009998826
-0.05980883752445696755
-0.94306643749848073632
-1.00000000000000000000
-1.00000000000000000000
-0.76164893968805513769
-0.82389090734250836068
-0.76890966581895514587
-0.01359393024542707856
0.00434258769048116028
-0.02381250018486586947
-0.43021777600815047649
-0.37291614892348912136
-0.71384854205915448944
0.01785635796570688924
-0.00683704510781421408
0.01022683864358388608
-0.14851202661327808641
-0.13270152348091407424
-0.15126089529731065464
-0.25419787442799129940
-0.26212755691545097658
-0.23928224964737726532
-0.17987597030185109581
-0.18993167348999498434
-0.20127535389121234410
-0.26914216627313536367
-0.20714914917837912167
-0.12508741199813080969
-0.03106729357748375109
-0.01016699909475460295
-0.03623643215905061887
-0.29119238867522345693
-0.29829831923216759693
-0.31667903918861073365
0.01109947282809402476
-0.31990260843873391527
-0.09591625486759747243
-0.09370306476724003797
-0.07435920921984739973
0.05412010032731524173
0.09131703344722748306
0.07405396789147469794
-0.56777156755119284615
-0.61690985599072334367
-0.56684845131392980200
-0.00291220570213672134
-0.06583550952270735002
0.05760550321990628997
0.05842010410409065324
0.03050871171277576982
-0.51808117587138191595
-0.46317358424035998121
-0.47023701666609712957
-0.94399600836232822054
-0.88706244586080906789
-0.88799201672465655211
0.03813823103489877298
-0.82482047820635584490
-0.04227778839465429206
-0.02224971156596194238
-0.03978076069576462481
-0.38200192496224083527
-0.35967844972280355043
-0.40789430076871319164
-0.01620835533035827267
-0.35059267368405189202
-0.65030518470860010360
-0.70597706219832767616
-0.65817666456942691688
-0.16328162853638339413
-0.14472225671998678598
-0.15674298995905952547
-0.51900429210864496010
-0.17333733172452725491
-0.24611462473878226165
-0.23119899995816822758
-0.23803137504957325166
-0.20124385946687556315
-0.21255604544375614195
-0.21846133515525967272
-0.26451481259436515625
-0.27483175076073906862
-0.27945910443950922053
-0.60903837612989653039
-0.09876018368233148437
-0.11573085358162277236
-0.10811674209883950781
-0.28656503499645336053
-0.08655969645108943511
0.03650245342663876319
0.05514854888757063367
0.02974556828902589697
-0.22529371024666469681
-0.31218150767601637874
-0.32684420266065827843
-0.30523991345409196008
0.11242284945787919814
0.13352866546853089935
0.09515978390212641302
-0.38087933754233821437
-0.42555817710421767197
-0.41849474467848052361
-0.03529429289344862553
-0.05482675105664801263
-0.04630305135950796291
-0.37027889363257088240
0.08533839902019191292
0.11388589570466189915
0.08615299990437627620
0.02653023939925547650
0.04871789110802979272
0.01927544600663759489
0.05678432649583064346
-0.33592997869940999234
-1.00000000000000000000
-1.00000000000000000000
-0.94399600836232822054
-0.01543475994874262888
-0.00861980833152331538
-0.03296580907854530784
-0.78464944036250294790
-0.83632072854357975000
-0.77314919002527904279
0.12370728058659639925
-0.67710939237804457225
-0.71937916603304985497
-0.66370728854332239344
0.05193321999780021320
-0.12954306403533535907
-0.12638460458975664391
-0.14156379727440809857
0.01986334672235676516
-0.00119318242180258861
0.00484817381380108110
-0.02195705061248597045
-0.25941096794041079709
-0.25132771825120175935
-0.26462406145283029479
-0.11257239413604405720
-0.18985095835661891517
-0.17325661659115115798
-0.18977024322324281824
-0.47955827144107882054
-0.52366491949613580559
-0.47489764405358797505
-0.26972790610678465395
-0.20116314433349946622
-0.73087941637027376007
-0.61355268724665290581
-0.57228587866794922157
-0.57680018978470570801
-0.28091882547077934307
-0.28700590018081961752
-0.29265210970649357947
0.03429061891519327721
-0.06941212015972753058
-0.06446503109960766142
-0.08161260739096956596
-0.29959370392841799813
0.14777741063578919700
0.12667159462513746804
0.16202615580304746690
-0.04987966199652814347
0.08188200751484542295
0.10534391092560020653
0.08024622990658542010
0.00562176919541672489
0.10961490331513104590
-0.42980804942160943938
-0.38512920985972998178
-0.38937908217712169368
-0.21967608951088812841
-0.22679613357802011486
-0.23241375431379668326
-0.34425329309905483566
-0.32050482207566122206
-0.32882813647530612089
-0.35485373700882216763
-0.52817923061289229203
-0.62695479108137508462
-0.94689181591413695838
-0.89088782427646528994
-0.89378363182827391675
-0.83921653609538848784
-0.43446867680910028486
-0.27581498081682498391
-0.14857066345433483923
-0.15265682670669716847
-0.13747763402204574157
0.07791637552344245210
0.10068420215931427053
0.07470104663367202469
-0.20828318840063148043
-0.16917045333878882873
0.15320175657825974014
0.17287484768798858092
0.14338037169632522616
-0.24694403046719648476
-0.25585668588481969010
-0.26024037366882502020
-0.10051255448184859276
-0.10226492528136571503
-0.11432476493556117947
-0.00185057798988312572
-0.01857243544166587573
-0.00523519316070322066
-0.08336497819048668823
0.10301405654245723853
-0.24132640973141988860
-0.30666262093481061468
-0.29407481718721223407
-0.30114373419360485062
0.05638850929711248378
0.06405912748619517483
0.04196123710427596826
-0.69319142381480036708
-0.73892043208865165749
-0.68515040809642246966
0.02510950710289118482
0.03035566748342560447
0.01086792957595114455
0.18027734873272527327
0.19852854166240305189
0.16602860356546697562
-0.03300435260172625285
-0.04873469185066695714
-0.03414932274758743919
-0.31174820233432654071
-0.31131489699263664717
-0.32007151673397138403
-0.33168192985332389799
-0.36053050601522279583
-0.35628063369783102843
0.18570169467519581641
-0.33025503316431503720
0.13623374860939241326
0.15858160151412292738
0.13196275621986156001
-0.12541779436785027713
-0.59391028907285658978
-0.63550984072545058101
-0.58535523942878109338
-0.30622931559312072114
-0.01742746529580468939
-0.27232998016886134085
-0.28003589888489233140
-0.28352089953285597446
0.16572822460105574027
0.01425254474677123927
-0.94689181591413695838
-1.00000000000000000000
-1.00000000000000000000
-0.48627662114776970537
-0.49299497085446059019
-0.53489758031958312134
0.10095799286221895930
0.10123178356512366194
0.07497483733657672733
-0.84351110797976991407
-0.78894401224688437413
-0.79323858413126580036
0.04720739748481039139
-0.20272430733905813516
-0.21567837145487345207
-0.22123725251644676959
-0.26794629238485601075
0.08264545552565941144
-0.64355085644382847843
-0.43796381753803859116
-0.39287422290605999997
-0.39636936363499830627
-0.16362341218542988952
-0.17867616091652493981
-0.18422320206988387903
-0.74321500397303308372
-0.29058981653924859101
0.12586288438909926102
0.12819273877224224290
0.15104156661888426538
-0.06104742209772550526
-0.05762981309584334910
-0.07994736918860453900
-0.54345262996365861774
-0.25167585873829140253
-0.23714558258489160103
-0.24749503159176311495
-0.04531708284878480097
-0.44468216724472942047
-0.13669104868015199972
-0.14263085606724340559
-0.11947798698075885737
0.19561924207011499588
0.22921232833718249711
0.21387043499979277450
-0.19717726618569919594
0.15481158406650358250
-0.32791132706273817821
-0.35864520461992993594
-0.32979662845803103810
-0.31168747713538469402
-0.32025780680534543521
-0.31150118706401064284
-0.32168470349435429601
0.20136793724606205647
0.21419478423326929195
0.22986102680413553201
-0.23158670152331828351
0.03119651035371492215
0.03203735322400423635
0.01509338761706055521
-0.36214034534886824224
-0.94800398720901046801
-0.89489580312314731536
-0.89600797441802082499
-0.15768360479833848364
-0.00910890445177063926
-0.02105662852674844432
-0.00547974122082688260
0.06541301321675874192
0.06676689894732230901
0.04856128321537395848
-0.84462327927464331268
0.18152228016928448340
0.18866890325621732405
0.20446295882444603942
-0.30391759243856714123
-0.30669145068352943184
-0.30900317383808306726
-0.26420687087109973046
-0.27255705585737982632
-0.27629647737113605110
0.12266300904628277268
0.14464181593325128872
0.12293679974918747533
-0.29155150238423044318
-0.29634761828891764690
-0.28579370063456138729
-0.60146851332762452103
-0.60902673758239234125
-0.65110908069859640968
0.14784169127606777705
-0.26002604372457149839
0.10435585102453374950
0.08420748925536446217
0.10279381729482869878
0.21716199281429077184
-0.03336935877380699245
0.01146422438611679855
-0.74571848223803161027
-0.69569490207979889362
-0.69819838034479742017
-0.09186959449530456012
-0.09706725988833514451
-0.07474970379557395461
-0.11428032158772827298
0.04940212608566327268
-0.55264511407174110591
-0.50218745496254313387
-0.51137993907062562204
-0.30918946390945706293
0.22974995423470873090
0.24509184757209845351
0.26097136680701438216
0.08556137498592802926
0.20985725569269100821
0.18044941115578763680
0.18421942860340695391
0.24541619680557497096
-0.40940374577138871626
-0.45119935831292468098
-0.40288655470319351126
-0.31592889545127000872
-0.31781419684656286861
-0.30394646383980178372
-0.30781697048759326663
-0.65361255896359482520
-0.30133825132976266303
-0.30153276846592041993
-0.30411210957472489813
-0.28205427912080516251
-0.20781730600000000719
-0.21174783872743674351
-0.19324673345826248738
-0.29654213542507545931
0.20716010725856853769
-0.22775560022743673860
-0.23983282899999999738
-0.24366393029588157004
-0.56020333832650903716
-1.00000000000000000000
-1.00000000000000000000
-0.94800398720901046801
-0.15355523634007600675
-0.17041942400000001379
-0.17454779245826246292
-0.32585007334274573854
-0.36110971848887202240
-0.32688070020274195837
-0.79268897863417242533
-0.84434847652609668067
-0.79296378138271905733
-0.46039184242100716915
0.14386433889770464112
0.14308686186215799352
0.12215932271364082773
-0.04562429138060235950
-0.05162705223822285083
-0.02736659791618650112
0.12372135644334586457
-0.74544367948948497826
0.16798563609619401871
0.17118551143901050704
0.19132945625913674870
-0.22382506750000000229
-0.26563680800000000204
-0.26909693192868988643
-0.25656591979588155850
-0.36762690955706722740
-0.06874694293795345634
0.03457935357228009154
0.03712135392055593980
0.01400622473439265027
-0.18911836500000001049
-0.30267903005812657469
-0.29866660943272371753
-0.30517704328405420577
0.06454877028834388186
0.04829306175617405911
0.06565783461783308850
0.20059335597591387845
0.22870298501522068335
0.24140201900506541577
0.25294301120599532728
-0.12860776800000001119
-0.13264940834007599157
-0.11023868124765229259
-0.25273481850000001359
0.27789083344105303119
0.26201131420613704703
0.29481030007509162472
-0.30130653663626272287
0.27514784696084004789
0.28932432711466565811
0.25959267695940058118
0.08345035838697449637
0.10224483442558021662
0.10013381782662668373
-0.14951359600000002636
-0.27855899442868992111
-0.28456093300000001589
-0.28805621769211520178
0.23140013344934318162
-0.29678994957434279289
-0.28963343530888380206
-0.30877238118581096238
-0.30774175432581474254
-0.61792265959477299386
-0.65806051996978520702
-0.61347469858858261205
0.05083506210444990736
-0.94816365985650563619
-0.89616764706551599318
-0.89632731971301127238
-0.57115098989446777544
-0.52232759063858447135
-0.53327524220654332066
-0.84450814917359184886
-0.30383619448867216217
-0.30125685337986768397
-0.30098093829381494801
0.27113366916033049270
-0.29882392373296018384
-0.29383329069211522322
-0.29611507900000000326
0.08234129405748527586
-0.27509887050000003672
0.00158496181215828742
-0.02201966478422203582
-0.00376197131980617570
-0.42934352920910451301
-0.47036173413986503977
-0.41937363749024658688
0.01935315786635711383
-0.29982377386326930502
0.18314181721601061059
0.16311433953908430206
0.16389181657463094965
0.18723563673757367964
0.12244341104969527767
0.14180891646850740662
0.14053097107485681971
-0.73621590922019042313
-0.68897061007550286504
-0.67974283980620842094
-0.06454476529030117593
-0.08346523919999999930
-0.08766741684765227971
-0.29033800600000003733
-0.33100952311587955590
-0.37020663444363410832
-0.32842979822931261946
-0.57559895090065815726
0.12033239445074175866
0.24176626199945797091
0.21654785912929735980
0.22581175884607448956
-0.10603650359999999830
-0.64883274970049065189
-0.29085536785864851694
-0.28304412628457337187
-0.29349529506218757779
-0.48130938570782388908
0.24095879652997165277
0.26250167428662385394
0.27206033736725232508
0.30978473448121446321
0.32475916888733724619
0.29286526784717581418
0.30704174800100147991
-0.28633878079672858696
-0.38017652616249203446
-0.30076638423296020441
-0.29999999999999998890
-0.30049046914690746846
-0.29805753950000002384
0.08750700050472411118
0.06231417721264002896
0.07602788539653398958
-0.94816365985650563619
-1.00000000000000000000
-1.00000000000000000000
-0.30058813045504872985
-0.28247981143811778937
-0.27532618756735177667
0.25691329968335513412
-0.84453244262407856091
-0.79271327208465913738
-0.79273756553514584944
0.09382040916567539746
0.28152374877765840022
0.29971440673199356564
0.31010448634932152867
-0.03616100409999999793
-0.04089264774030117872
-0.01728802114392085504
-0.30316785534161566629
-0.73624020267067713519
0.18152829902081107916
0.17991478082561157548
0.16150082134388477062
0.16022287595023421147
-0.29597813353914259604
-0.29097532878447024407
-0.29482096910859700856
-0.05981312164999999514
0.04301200266303388531
0.04890265140551182388
0.02524380660883505587
0.21988892198265699851
0.20151536959933380455
0.20560918912089687360
0.23082759199105748471
0.29108241185828692688
-0.54888017374639419543
-0.56448510528624507021
-0.59120388244050903204
0.06820482595511796753
-0.28913743048405726732
-0.27960825153539087262
-0.28132618890998212224
0.11758153075173011226
0.13778010737584517331
0.13502924367683352691
-0.62211397254622680109
-0.45998039284106323477
-0.49662781752380324995
-0.44466196102508387389
0.32710880629090843819
0.35940731250672525166
0.34208324069703122117
-0.28529179015993055835
0.32268057232346386565
0.34039799320979968744
0.35603681753226207318
0.11126812209077882598
-0.26468097144006935695
-0.27715720337447657950
-0.27386254886232136441
0.33307065194079177317
-0.27000357950371056681
-0.34063249856445876329
-0.38498801388678161040
-0.33582101084016913184
-0.29805753950000002384
-0.29611507900000000326
-0.29854800864690744788
-0.94834311318839925598
-0.89650677304490489217
-0.89668622637679851195
-0.84471189595597218069
-0.51223274906365412473
-0.29354520389223515142
0.29321984901491715547
0.26749305550718754931
0.28264009319108474028
0.01207978200000000071
-0.01204061104999999861
0.00683237190607914428
0.03049121670275591056
-0.74380639851821950259
-0.68730903565375078834
-0.69487523150129326677
-0.40030644570276097127
0.20121014950114307629
0.21927848178627554199
0.19959663130594357261
-0.27061508443111537137
-0.26590398129487896606
-0.29845675220537926098
0.17758022458177058489
0.17524566833792956655
0.15788831970639319313
0.21958370188446627025
0.32578507092266295597
0.29892270414495764053
0.31794477863599224232
0.15513745600738154673
-0.59286744538902191870
-0.63630514259761516982
-0.57867627533763354997
0.25213902259759890523
0.26251178319573981179
0.24120035258919841903
-0.30326823992966889243
-0.27462168688100657699
-0.27290374950641532736
-0.26619924747743978211
0.09491930779744563174
0.07191097960147872781
0.09121315415108487146
-0.64387133844515753722
-0.26544010945875456953
0.37385355447943069418
0.38829979645213608119
0.35652948266973666369
0.27786581610532845588
0.30950245996879005572
0.37216830699219904943
0.13270422708363349695
0.11010561379417879713
0.13386673538023352581
-0.27629753915128085762
-0.28198107777582059885
-0.27298682676717089812
-0.25967087858510290443
-0.25434827052146169457
-0.24401556960285405995
0.33626864795117111795
0.35923481354264141796
0.36243280955302070723
-1.00000000000000000000
-1.00000000000000000000
-0.94834311318839925598
-0.84606437123227562491
-0.79409004081144929366
-0.79544251608775273787
-0.25495977544886649913
0.24089513249100769077
-0.49208960183388505971
-0.52828735356006506496
-0.47603499733747411948
0.11381176744053955741
-0.74515887379452294681
-0.29033800600000003733
-0.28456093300000001589
-0.28776813089223512998
0.34410894023784183160
0.06000770810000000122
0.03604374504999999923
0.05445517975275591255
0.19694952891780978521
0.21663137939814175459
0.21398427701000799495
0.19461497267396876687
-0.42451839389222412180
-0.36484444675392191382
-0.38905639494338500883
-0.54247852361145354472
0.07746350794872280954
-0.27877387988358548476
0.17347832657933570655
0.17171098482074187430
0.15337011424878771448
-0.26223934560140454986
-0.26894384763038009512
-0.25827944372536931761
-0.30027578952835037862
-0.26291153089356045225
-0.25991908049224199395
0.15220760595218768563
-0.26563313524627008011
0.40521377979347250609
0.39076753782076706356
0.42212776313480887547
-0.25645532519410824124
-0.24671140291077667261
-0.25569618717542302866
-0.44057299838863506203
0.41853880122475395353
0.38728780937850804111
0.40341929883844501736
0.34410907062171935955
0.31866445981831825751
0.33494707077219115776
-0.24536348625681536628
0.30372496202815979505
0.31423007504140243462
0.28837092911857109545
-0.59973220115438330424
-0.60659695691974468978
-0.65073609421051892276
0.38027354501475885140
0.37707554900437956213
0.39811428047649699558
0.25450075843981501134
0.23688962011304526278
0.25850627081777743932
-0.94804290843271377121
-0.89638602162111302718
-0.89608581686542743139
-0.84576416647659002912
-0.23474439094403709571
-0.22547321228522015923
-0.24568859679004956265
-0.33859309813990101645
-0.31438114995043786593
-0.28812980133641702407
0.40832654085062547455
-0.74780292875603793235
-0.69751928646280825230
-0.70016334142432323784
0.23424251772491150314