VARIABLES = "X", "Y", "P", "U", "V", "L2Error", "divergence", "vorticity"
ZONE NODES=7841, ELEMENTS=15360, DATAPACKING=BLOCK,
VARLOCATION=([6, 7]=CELLCENTERED),ZONETYPE=FETRIANGLE
-1.00000000000000000000
-0.98122943893264669146
-1.00000000000000000000
-0.96245887786529338292
-0.98122943893264669146
-1.00000000000000000000
-0.92487875465956070897
-0.94364337300355383142
-0.94366881626242704595
-0.96240799134754695388
-0.96243343460642016840
-1.00000000000000000000
-1.00000000000000000000
-0.98120399567377347694
-0.98120399567377347694
-0.84956830804227345677
-0.86826426139596657450
-0.86840070476993869164
-0.88696021474965969222
-0.88709665812363180937
-0.88723310149760392651
-0.92451049921498018591
-0.92461521800373325242
-0.90573535698231988356
-0.92471993679248642994
-0.90584007577107306108
-0.90605592807858226223
-0.92479934572602351395
-0.90597651914504517823
-1.00000000000000000000
-1.00000000000000000000
-0.98110108491423342336
-1.00000000000000000000
-0.98110108491423342336
-0.96220216982846673570
-0.98115837975974962148
-1.00000000000000000000
-0.96231675951949913195
-0.98115837975974962148
-0.94335633452172351632
-0.94341362936723971444
-0.96225946467398293382
-0.94351834815599278095
-0.96236237543352309842
-0.94356396407001663640
-0.97113007252941319081
-0.94226014505882627059
-0.95235951146205977125
-0.88459665287798217026
-0.89467046758159662900
-0.91342839896840422043
-0.90474428228521108775
-0.92350221367201867917
-0.91481151847238595387
-0.93360158007525217982
-0.76984091232538498506
-0.77982300507018476043
-0.79846912174046924537
-0.78980509781498453581
-0.80845121448526902075
-0.82709733115555350569
-0.80972131866258667543
-0.82844236255895364884
-0.79976320823878555011
-0.84716340645532062226
-0.81848425213515252352
-0.85584699201676783797
-0.86588002966665134075
-0.83713036880543700846
-0.83959822081595492094
-0.85843061754362026683
-0.82962813358963649613
-0.89603939205844640448
-0.86720002945733209998
-0.87721656547746795773
-0.81967472612611158578
-0.83846067405995938771
-0.84841408152348429805
-0.85718171795632636112
-0.88597215587127164937
-0.87595384437026591051
-0.84518176189850136026
-0.84079521575472915274
-0.86387771525219436697
-0.83242641291040087026
-0.85530155709787658580
-0.83661081433256501150
-0.87817670128535241236
-0.85948595852004072704
-0.90134360025016624363
-0.88256845801750605229
-0.81882480414180491834
-0.84041794168712757873
-0.82189139599065297315
-0.86201107923245023912
-0.84348453353597563353
-0.82495798783950102795
-0.90721687474533585505
-0.88846699609222290484
-0.88461397698889299157
-0.86971711743911006565
-0.86586409833578015238
-0.82869220037495094910
-0.85107176517475546795
-0.84733755263930554680
-0.97673737294310725154
-0.95783845785734067491
-0.95347474588621461411
-0.92012332261942830769
-0.91573614602387654049
-0.93896915792617163810
-0.93034581031577523458
-0.91147651038460619777
-0.93460544595504557730
-0.89272663173149324756
-0.89695642365461447643
-0.87394690936223118349
-0.82651740155215858152
-0.81654731432584015671
-0.80346649506204370628
-0.79666491619820001269
-0.78360851373381334994
-0.80661832366172492303
-0.75784599031642907452
-0.78065624268923639040
-0.77072725202512115672
-0.79353750439792847260
-0.75691962218523745065
-0.74399833204509002726
-0.76690171493003722603
-0.71817130564649878099
-0.74098809394392273209
-0.73108481884579434862
-0.76380488224134668318
-0.75390160714321829971
-0.78676310045196662379
-0.77680499002816560949
-0.66899746285484507080
-0.69097459310152298251
-0.68091419125812757684
-0.71295172334820078319
-0.70289132150480548855
-0.69283091966141019391
-0.74790015948789889677
-0.73539885683231487334
-0.73795432865936871902
-0.72545302600378480662
-0.70550111265395454296
-0.72806281715293375001
-0.71539262416038940096
-0.75087960545035770110
-0.76078142119659108999
-0.77370669798757996105
-0.82213085540838637399
-0.77642477187371516933
-0.79500355343100115313
-0.79923502424652248521
-0.81371498317070101169
-0.81789938459286515293
-0.68769238697437073959
-0.70638731109389640839
-0.70966951722104854028
-0.74375749692330161977
-0.74693271029938768102
-0.72507240400859895857
-0.75010792367547374226
-0.72824761738468501981
-0.75397695699595135288
-0.73152982351183726273
-0.80001335791080019355
-0.80307994975964813733
-0.78120191167979535773
-0.80991455497382358608
-0.78740269703724619088
-0.80618034243837355390
-0.76247970430154854427
-0.76558009698027396084
-0.78430230435852077431
-0.76875531035636002208
-0.79120312523412361649
-0.77255573855323744770
-0.84154959384444061321
-0.86427438354707619705
-0.86314273138976327360
-0.91007160715976331833
-0.90907282675605127764
-0.88717299535341975769
-0.90807404635233912593
-0.88617421494970760598
-0.90764546054883754600
-0.88504256279239468252
-1.00000000000000000000
-1.00000000000000000000
-0.97783054081164189064
-1.00000000000000000000
-0.97783054081164189064
-0.95566108162328389231
-1.00000000000000000000
-0.97714493535885305064
-1.00000000000000000000
-0.95428987071770621231
-0.97714493535885305064
-0.93286634439152360532
-0.93218073893873476532
-0.95497547617049505231
-1.00000000000000000000
-0.97673737294310725154
-1.00000000000000000000
-0.93042761126467898869
-0.95363834778402201131
-0.95355654683511836822
-1.00000000000000000000
-0.97681917389201100566
-0.97681917389201100566
-0.95396410925086416732
-0.93085619706818056862
-0.93118195853502272463
-0.74137284243889434165
-0.71290477255240380927
-0.72845155229874691827
-0.65627898197519274337
-0.67175443692711467314
-0.68459187726379822081
-0.68722989187903671393
-0.70006733221572026160
-0.70270059876276769195
-0.71561411196206337060
-0.54417893200679967602
-0.55953087517060184908
-0.57208870681019274862
-0.57488281833440402213
-0.58744064997399492167
-0.59999848161358582121
-0.60593145893595234952
-0.61838046272356339550
-0.59040713863517813031
-0.63082946651117444148
-0.60285614242278917629
-0.62813873179438928229
-0.64355422424318353691
-0.61541397406238007584
-0.65313524405155076735
-0.66505197245483338442
-0.63727302524825657493
-0.68996694810739156445
-0.66176259056828445893
-0.67729675511484732642
-0.62160224209210446222
-0.63384702475211840422
-0.64951780790827051693
-0.64629602853972945020
-0.67449624122366058643
-0.65902967919510557770
-0.79193904779886004075
-0.77312760156785520493
-0.76505329145591516316
-0.73560078780189108727
-0.72744407868048044374
-0.75432299518013790074
-0.71209297786120295815
-0.73857313465855911616
-0.71976852827084170094
-0.74624868506819774794
-0.66057385650667210797
-0.65215025015849914514
-0.67926878062619777676
-0.63670221830860940226
-0.66327100340478040152
-0.64442623423355427370
-0.68983978850095140078
-0.67099501932972527296
-0.71679864271212645477
-0.69811354979742390459
-0.60292917952932900683
-0.63065537346360700521
-0.61190901451237822428
-0.65838156739788500360
-0.63963520844665622267
-0.62088884949542744174
-0.69323095178370630620
-0.68523727262954392536
-0.67436892570620976528
-0.66637524655204738444
-0.62879553390201836649
-0.65553557200740963928
-0.64762888760081860351
-0.68210435710358052752
-0.70090650219334516002
-0.70864193359071592226
-0.81894250926092881926
-0.81906021438005260915
-0.84166729896356440310
-0.82036539162752375454
-0.84233645386651390119
-0.81971280300378812633
-0.86430751610550393682
-0.84168386524277827299
-0.88718956163263362757
-0.86429094982629006694
-0.82433290114319957009
-0.84613550397624637256
-0.82331602030700468120
-0.86793810680929306400
-0.84511862314005137264
-0.82229913947080968128
-0.91063941144316939980
-0.88815635838923290279
-0.88928875912623128741
-0.86567330533529640579
-0.86680570607229467939
-0.82133226554916671791
-0.84301934848141013568
-0.84398622240305298803
-0.97711440442414110308
-0.95494494523578299372
-0.95422880884828209513
-0.90988129018069452414
-0.90969097320162561893
-0.93267602741245481113
-0.93243411014572574746
-0.91016519232239745385
-0.93195989102495380152
-0.88768213926846106787
-0.88699924465356483338
-0.86499041072040017131
-0.79205675291798383064
-0.73913313366123789550
-0.76617328946127272182
-0.76561329045859394249
-0.79326934054439823818
-0.79261675192066260998
-0.63018839029743589641
-0.65744760106554267498
-0.65791458423171378378
-0.71272549271740803789
-0.71276825414018996074
-0.68508654689147530092
-0.71281101556297188360
-0.68512930831425733480
-0.71245199671208747638
-0.68559629148042844360
-0.79638053410262910070
-0.79536365326643410079
-0.76842816706205852029
-0.79391959931269628914
-0.76747380699786882374
-0.79488647323433925251
-0.74057682988973327909
-0.74009964985763843082
-0.76795098702996367201
-0.74014241128042035367
-0.76682354822957077278
-0.73949215251212230271
-0.45955677196753746960
-0.48527105841472006897
-0.46885631751752693264
-0.51098534486190272386
-0.49457060396470953201
-0.47815586306751639567
-0.56293924731906341830
-0.54663444459317100943
-0.53696229609048307108
-0.53032964186727860056
-0.52065749336459066221
-0.49815208345941724977
-0.48815397326346682272
-0.51424086266334789741
-0.50424275246739747036
-0.64228201042037258439
-0.62641979161707839197
-0.61556655798590009798
-0.59465344504941164416
-0.58337543116287104983
-0.61032422820556386789
-0.58925290265248175814
-0.57315733924096723406
-0.59947099457438557391
-0.53226082210575209608
-0.52034271220470440511
-0.54761276526955415811
-0.52488287516944298616
-0.50924739783206085519
-0.55161366687946866705
-0.53597818954208653608
-0.57877256290771050828
-0.56324824260693628908
-0.56749454902116980293
-0.54097165437337357830
-0.55685253651507482520
-0.58533404269086608540
-0.59431387767391530286
-0.56773890585240316398
-0.61064900463459526048
-0.58459579096058111869
-0.60274232022800422470
-0.53225333250553641395
-0.54999611917896973345
-0.55842456173305876632
-0.57616734840649219684
-0.63385840407219962156
-0.58137667404748194500
-0.59981410077590036067
-0.60769032938090017382
-0.61825815954225493698
-0.62598217546719969739
-0.47788143071397326533
-0.49620608946040906106
-0.50359571716115592022
-0.54008813373313513395
-0.51422971098297276527
-0.54792293496073385395
-0.52206451221057148526
-0.55543109113989863612
-0.52945413991131828890
-0.57386851786831716282
-0.56625936296065748632
-0.59220494586824079519
-0.84921764745087746640
-0.87410239375855547372
-0.87102025028392426886
-0.92147901339182647362
-0.91870745519690055758
-0.89779070357519097367
-0.91593589700197475256
-0.89501914538026516865
-0.91328765422257207618
-0.89193700190563385277
-1.00000000000000000000
-1.00000000000000000000
-0.98186328948205459088
-1.00000000000000000000
-0.98186328948205459088
-0.96372657896410918177
-1.00000000000000000000
-0.98022489439592330740
-1.00000000000000000000
-0.96044978879184661480
-0.98022489439592330740
-0.94260279617796782770
-0.94096440109183654421
-0.96208818387797789828
-1.00000000000000000000
-0.97711440442414110308
-1.00000000000000000000
-0.93390434695220425620
-0.95716928246123911261
-0.95569904565476060387
-1.00000000000000000000
-0.97858464123061961182
-0.97858464123061961182
-0.95880953562654291922
-0.93655258973160693259
-0.93819284289691062817
-0.44269495590278484798
-0.45199450145277431101
-0.42583313983803228187
-0.47149869815164713316
-0.44484531284387707206
-0.46150058795569670611
-0.39273119922909821566
-0.40928216953356522101
-0.41878825603648761611
-0.43533922634095467696
-0.51662274274303565669
-0.48906655347927163735
-0.50470463284198796572
-0.43507377438179550833
-0.45049085473301087035
-0.46207016393053357284
-0.46590793508422623237
-0.47748724428174893486
-0.48203000927182171331
-0.49312532364446531874
-0.33145707802667989661
-0.34623460995711097254
-0.35698714466249181765
-0.36101214188754210399
-0.37176467659292289358
-0.38251721129830368318
-0.40274253969609496995
-0.37687167055832015983
-0.41275388016309177974
-0.38688301102531696962
-0.40879549284004956800
-0.42391382727244364403
-0.39763554573069770370
-0.43933090762365900606
-0.42879959650348442590
-0.45537662396405165222
-0.63013396424393475215
-0.65531083222889452422
-0.62659999950987188555
-0.68048770021385418527
-0.65177686749483165762
-0.62306603477580901895
-0.73076082642563577885
-0.70182305460214133852
-0.70562426331974492655
-0.67288528277864689819
-0.67668649149625048622
-0.61633141006460756550
-0.61969872242020829223
-0.64460834642162723185
-0.64797565877722795857
-0.80170426162940877646
-0.77375189458883819604
-0.77907562211561798282
-0.71730186977454124531
-0.72187824683167434170
-0.74515320694686648650
-0.75491822427062693635
-0.72631953662865500476
-0.75047693447364616226
-0.60635890959181071302
-0.60978863965429230820
-0.63361812035991749159
-0.64083242953451491353
-0.61306002485944999236
-0.66533344900442226155
-0.63756104432935734039
-0.68902947086091514972
-0.66139052503498252378
-0.69360584791804824611
-0.66910936589153457987
-0.69738176480516056444
-0.44896748364078031823
-0.43837819531402322237
-0.46729214238721616947
-0.41533567829135586980
-0.44452832183979540392
-0.42685693680268954608
-0.47372096538823488254
-0.45604958035112908021
-0.50298714894688567600
-0.48496352742432197180
-0.36509926332712727692
-0.39425485071144050764
-0.37782744244617327833
-0.42341043809575368284
-0.40698302983048645354
-0.39055562156521922423
-0.48262315459681293106
-0.46587743104621792689
-0.45301679634628333471
-0.44913170749562286721
-0.43627107279568827503
-0.40294564992828751926
-0.43223369289348934075
-0.41984366453042104572
-0.57274934729401072442
-0.55515421045554780299
-0.54256951505869244201
-0.52028728205128238482
-0.50832123159702835569
-0.53803006872471570432
-0.51259633482775268654
-0.49547219309692064337
-0.52544537332786034334
-0.47872646954632558369
-0.49102109849263164687
-0.46142633644192887488
-0.84752977246498872876
-0.87054338542802645051
-0.84499994712860437840
-0.89355699839106417226
-0.86801356009164210015
-0.84247012179222002803
-0.93311510703207833917
-0.91039253019785804089
-0.91333605271157125571
-0.88766995336363774260
-0.89061347587735095743
-0.83686596891455111713
-0.83966804535338557258
-0.86226796113909442987
-0.86507003757792888532
-0.98368252606059791709
-0.96554581554265261900
-0.96736505212119594521
-0.92454894705984047576
-0.92761888072785436687
-0.94567272984598171881
-0.95024007957663714219
-0.93036699387996635302
-0.94749196642452515604
-0.82755892266230079990
-0.83078494418140214073
-0.85244366896997880723
-0.85898891840800195574
-0.83382545654797657342
-0.88111186790145268333
-0.85594840604142741203
-0.90129544064663957847
-0.87760713083000407853
-0.90436537431465358061
-0.88439091063254515745
-0.90764441704574605474
-0.82002062982990897577
-0.81749080449352462541
-0.79251148719482922278
-0.81261594487100308193
-0.78836592082745515775
-0.81541802130983764840
-0.73707830147128117204
-0.76479489433305514190
-0.76272211114936816490
-0.79043870401114224578
-0.80493028314851011729
-0.75733028033187443917
-0.78389973423811298847
-0.78148767817686548565
-0.81038285157633205280
-0.80734233920975762011
-0.65643817437926621494
-0.68274238451459756671
-0.68161504236422587599
-0.73553487637409409317
-0.70991034299293942489
-0.73399145127690690327
-0.70836691789575223499
-0.73237613885127128555
-0.70723957574538054427
-0.75894559275750994587
-0.76117868605218097500
-0.78613282753278412862
-0.58145526435633287932
-0.55998134918333664078
-0.58488499441881447449
-0.51658664725726000100
-0.54122140977850707877
-0.53828399822029826538
-0.56585617229975415654
-0.56291876074154534315
-0.59109379118218086102
-0.58782240597702317686
-0.43318093848093941478
-0.45701368002802034152
-0.45373388273823700434
-0.48084642157510132376
-0.47756662428531793108
-0.47428682699553453839
-0.52928996661831551052
-0.52595680814496037492
-0.50506819409670844490
-0.52262364967160523932
-0.50173503562335330930
-0.49543673712639724194
-0.51960514846443262016
-0.49845523833356986110
-0.60452530469020815396
-0.60099133995614528736
-0.57891664513648144474
-0.59423487931952867491
-0.57213834857444978432
-0.59760219167512940164
-0.55410330587739853314
-0.55071415759638264742
-0.57552749685546555902
-0.54738099912302751182
-0.56899726043710197043
-0.54423991098567969793
-0.55127543212101448589
-0.49109970856696016916
-0.49957626253710735176
-0.52107288879789992464
-0.50808145489718370413
-0.52977880586022196852
-0.37332775240825044616
-0.38155624148937355988
-0.40248333979256362136
-0.39849488012769429535
-0.41931390621349701187
-0.39002556080853389986
-0.44013293229929972838
-0.41084458689433667189
-0.46137804344805632972
-0.43177168519752673337
-0.42447710631618251753
-0.44503005057348010709
-0.41577327415142567579
-0.48683910649879047483
-0.45709156574032089315
-0.46568919636792771577
-0.40713407713955995781
-0.42779322293400756649
-0.43643241994587328447
-0.44861224901981033852
-0.47833391413871412245
-0.46985459741820356783
-0.43349672469405431396
-0.41663490862930174785
-0.40743667742057121384
-0.38350813993165044913
-0.37428508063420262708
-0.40005911023611745447
-0.35581517259258493846
-0.38162592500657810390
-0.36505012661339375502
-0.39086087902738692046
-0.32100207963433924352
-0.31054708124199853492
-0.33577961156477031945
-0.29163299738965703378
-0.31665857431775568109
-0.30109003931582778435
-0.34168415124585432840
-0.32611561624392643166
-0.36720767523747627203
-0.35134814656669821620
-0.25406002843514069456
-0.27937610120411882075
-0.26369913223984098316
-0.30469217397309689144
-0.28901520500881905384
-0.27333823604454127176
-0.33964903308661431591
-0.33025367328284094270
-0.32348289358064369337
-0.31408753377687026465
-0.28248561671709915277
-0.30755794548515036357
-0.29841056481259248256
-0.33258352241324901089
-0.34888398710742318798
-0.35798461594002850550
-0.42290743636729721810
-0.37082071446055486774
-0.38582625632852479702
-0.39663146687454797767
-0.40058096730994030565
-0.41210222582127398194
-0.26812249508124486042
-0.28218496172734908178
-0.29343856785022298661
-0.30992767443963331608
-0.32183382498170381991
-0.29605631808349119893
-0.33373997552377432374
-0.30796246862556170276
-0.34477757405817965886
-0.31921607474843560759
-0.35129651448741211484
-0.36402469360645806074
-0.33749376564769695275
-0.38881896357564055267
-0.36230224885992523554
-0.37642893521257225764
-0.32371072004366513442
-0.33611496164977927581
-0.34989800725381109414
-0.34802111219184977964
-0.37406425259422504404
-0.35978311592614953263
-0.87262859351252308748
-0.89772741456005744620
-0.89564220647556080923
-0.93989598571712906772
-0.93844218112838451162
-0.91881170013859325696
-0.93698837653964006655
-0.91735789554984870087
-0.93505174178585925837
-0.91527268746535206390
-1.00000000000000000000
-1.00000000000000000000
-0.98640855923278469852
-1.00000000000000000000
-0.98640855923278469852
-0.97281711846556939705
-1.00000000000000000000
-0.98579338730732923857
-1.00000000000000000000
-0.97158677461465847713
-0.98579338730732923857
-0.95635655209134928789
-0.95574138016589382794
-0.97220194654011393709
-1.00000000000000000000
-0.98368252606059791709
-1.00000000000000000000
-0.95144694665095630448
-0.96977878626983426980
-0.96857191919551510750
-1.00000000000000000000
-0.98488939313491719041
-0.98488939313491719041
-0.97068278044224642898
-0.95338358140473711266
-0.95428757557714927184
-0.82272489086186451068
-0.79521574822678475769
-0.79792000925874040362
-0.73936226581674624470
-0.74164623016221120633
-0.76707885867852021455
-0.74608176654206437295
-0.77200088790040233278
-0.74386399835213778964
-0.76978311971047586049
-0.63187019303432934159
-0.63360642182472382000
-0.65817440316966069336
-0.63720640099500702735
-0.66190955849223842566
-0.63540641140986542368
-0.68661271598946982397
-0.66010956890709682199
-0.71184550873037544250
-0.68467755025203369534
-0.64412557342103426983
-0.66921520752248342401
-0.64244224491447465830
-0.69430484162393257819
-0.66753187901592392350
-0.64075891640791515780
-0.71829456351494669342
-0.72019330408299842006
-0.69050736048782901388
-0.69240610105588085155
-0.63898265870146109258
-0.66385688074141802062
-0.66563313844787208584
-0.68856003823864941893
-0.71607679532502011011
-0.71412947307584051515
-0.23893163179445497946
-0.24857073559915526806
-0.22380323515376923660
-0.26705341126301401777
-0.24247382513637100176
-0.25790603059045613676
-0.19395591293647146403
-0.20887957404512036419
-0.21821486903642123290
-0.23313853014507013306
-0.30660611363243950311
-0.28175514923819905411
-0.29615111524009879451
-0.23317749670994303290
-0.24724014590522797041
-0.25746632297407101575
-0.26130279510051290792
-0.27152897216935600877
-0.27646789624508494310
-0.28592493817125574918
-0.13839681573082193711
-0.15187598506948141175
-0.16192961091323182510
-0.16535515440814085864
-0.17540878025189127198
-0.18546240609564168533
-0.20346881269609284892
-0.17965553367230616133
-0.21298171245571426158
-0.18916843343192757398
-0.20931995140279235912
-0.22307960458282866112
-0.19922205927567798733
-0.23714225377811359863
-0.22772776879604261779
-0.25188831011844192709
-0.43597945268748461434
-0.43877796689402975838
-0.45981219423456554107
-0.44429028548519461372
-0.46544709085530827641
-0.44153412618961218605
-0.48660389622542193910
-0.46269093155972584874
-0.50794693142186875257
-0.48372515890026163143
-0.45472355300320776994
-0.47634359912620388711
-0.45216818373255562857
-0.49796364524920000427
-0.47378822985555169023
-0.44961281446190343170
-0.54109246532284172027
-0.51672764831027029331
-0.51952805528602086227
-0.49236283129769875533
-0.49516323827344937980
-0.44695154997354902271
-0.46832655839144665677
-0.47098782287980112127
-0.60749180001506852822
-0.58188314046134181901
-0.58484963578620230429
-0.53222691698624791101
-0.53516386735418042253
-0.55704025624533093364
-0.56297105055452201228
-0.53812816633851112691
-0.56000675157019141892
-0.51376334932593958893
-0.51088388178980115306
-0.48948336376156031946
-0.35377010041214801417
-0.34244093749716875141
-0.36199858949327112789
-0.32049714244768040539
-0.33982764412274152344
-0.33146903997242460616
-0.35915814579780264149
-0.35079954164748572421
-0.37882651296274849617
-0.37035719364358810068
-0.27690633136089182198
-0.29622733466085937604
-0.28785824208848243000
-0.31554833796082698560
-0.30717924538845003957
-0.29881015281607309353
-0.35444155196417792553
-0.34591506999335974726
-0.33499494496250248332
-0.33738858802254151348
-0.32646846299168424954
-0.30965364763187674946
-0.32894286523511095943
-0.31809937041930730350
-0.41340954022864173645
-0.40470570806388483920
-0.39363814197634405811
-0.38741211581745682579
-0.37632935150721941175
-0.39605131282932254377
-0.37403984697026099182
-0.36538545173569869640
-0.38498374674178170718
-0.35685896976488046262
-0.36774374865251102662
-0.34827336691017207748
-0.47778866285452337159
-0.50085377270583897324
-0.49940870897751948876
-0.54749992610198405796
-0.54595999861376109941
-0.52417684940391151560
-0.54442007112553802983
-0.52263692191568855705
-0.54275626822418987505
-0.52119185818736901705
-0.61957111754751426069
-0.61788778904095464917
-0.59501666167399425156
-0.61449901668087258955
-0.59179163236673804072
-0.61627527438732654375
-0.57125829388798909925
-0.56964577923436099383
-0.59340414702036614614
-0.60922802880546300663
-0.56472460203648278121
-0.58835673875012384215
-0.58660318726816307322
-0.61278156987256537924
-0.61098158028742388659
-0.59007418555843094143
-0.56638840493783093599
-0.56810585174613803527
-0.24440244932898613772
-0.23474487022283155313
-0.25846491597509030358
-0.21430122159563000372
-0.23806372826968102974
-0.22452304590923077843
-0.26182623494373208350
-0.24828555258328183220
-0.28587695469168272755
-0.27200559833554061040
-0.17313085102337538723
-0.19673201766963288595
-0.18336244866626538741
-0.22033318431589035691
-0.20696361531252288612
-0.19359404630915538759
-0.26797799804184568861
-0.25446508488024616179
-0.24415559117886803664
-0.24095217171864666272
-0.23064267801726850982
-0.20394763395239268178
-0.22762669665713833322
-0.21727310901390101128
-0.34063129083298548938
-0.32682854199327027178
-0.31616331833884364633
-0.29940750269857085986
-0.28888733095750834812
-0.31319054830260262268
-0.29207065819034466747
-0.27843266449967701837
-0.30252532464817599722
-0.26491975133807749154
-0.27535678295062021581
-0.25138920333118935924
-0.84958309244684804273
-0.85163641242870735670
-0.87468191349438240145
-0.85492726386141681960
-0.87818798868299441374
-0.85328183814506208815
-0.90144871350457211889
-0.87654256296663968229
-0.92067234961085064882
-0.89958806403231483806
-0.85883318348520076846
-0.88221720727439256748
-0.85808441099969534616
-0.90560123106358447753
-0.88146843478888725620
-0.85733563851418992385
-0.94363440195775472041
-0.92385078747189308679
-0.92461781651066954346
-0.90406717298603134214
-0.90483420202480790984
-0.85613145118780331622
-0.87949721842372408087
-0.88070140575011057749
-0.98692486314621652443
-0.97333342237900122296
-0.97384972629243304887
-0.94107643887472658406
-0.94225689203232421143
-0.95753700524894680424
-0.95874206412509388464
-0.94294564699503946592
-0.95805330916237863015
-0.92316203250917783230
-0.92185280276844816516
-0.90275794324530167501
-0.83216736408095481892
-0.83141859159544939661
-0.80550154467670886937
-0.82924928797016650428
-0.80357131207891607794
-0.83045347529655300090
-0.75024389956548687142
-0.77787272212109792591
-0.77690760582220153019
-0.80453642837781247366
-0.82477821084372382465
-0.77355026486583799983
-0.80101876318961162671
-0.79946938622417595965
-0.82797301352551422315
-0.82632758780915949171
-0.67006685973073820684
-0.69600814604044203282
-0.69515649383218724999
-0.74929677927914584146
-0.72312602280296445212
-0.74834965899280470047
-0.72217890251662342216
-0.74721571276743459222
-0.72132725030836863933
-0.77468421109120821910
-0.77596048553586038921
-0.80229503763426390783
-0.32930212791800617111
-0.28105863139104814152
-0.29413926474025053892
-0.30515129153954712038
-0.30731820359396544440
-0.31829010111870964517
-0.18594405225945986881
-0.19875725349554437815
-0.20954521890571736753
-0.22463358295047364255
-0.23545613427119038708
-0.21169541822300902423
-0.24627868559190715936
-0.22251796954372576876
-0.25712834181687643786
-0.23330593495389875813
-0.26379777761395695190
-0.27474968834154761543
-0.25068922386702213734
-0.29647768476129721105
-0.27245822707491396120
-0.28563418994549349961
-0.23766140340874788994
-0.24854590501269380187
-0.26157372547096802151
-0.25936845633341054640
-0.28329874590758225006
-0.27020897516607883526
-0.12830452496567942844
-0.11821223420053693365
-0.14178369430433890308
-0.09838959233816488292
-0.12217103590450516248
-0.10830091326935090135
-0.14595247947084544204
-0.13208235683569119479
-0.16995419620365845303
-0.15565381693949315034
-0.05620039708824119129
-0.08068305572709356943
-0.06704685719140371369
-0.10516571436594594757
-0.09152951583025609184
-0.07789331729456622222
-0.15434300506405637665
-0.14025225473857369507
-0.12975435971500115517
-0.12616150441309101349
-0.11566360938951847359
-0.08814145481636555257
-0.11227554837562794821
-0.10202741085382861785
-0.22900455186921109263
-0.21387615522852537753
-0.20394907530328149070
-0.18435474962323233905
-0.17475358630999324183
-0.19927841073188123922
-0.17914604018366891980
-0.16454829568702480924
-0.18935133080663735239
-0.15045754536154212766
-0.16035303289041935582
-0.13605699194196824164
-0.28273940013945580985
-0.30393887879701064758
-0.30176172531365819118
-0.32513835745456554083
-0.32296120397121302892
-0.32078405048786051701
-0.36794299133019264803
-0.36564499792020349611
-0.34654067439237912218
-0.36334700451021434420
-0.34424268098238997027
-0.35854218649356439652
-0.33966311849071245677
-0.36094459550188939811
-0.34206552749903740285
-0.43293417184073113013
-0.43037880257007893325
-0.41114479067825443481
-0.42529173910166723216
-0.40629319271813985059
-0.42795300359002164114
-0.38954389100422354142
-0.38711809202416624931
-0.40871899169819714270
-0.41456344069626088755
-0.39594594291158236032
-0.41736195490280603160
-0.37988740753533478678
-0.37724406470257337842
-0.40123262857710523255
-0.39858928574434382419
-0.42276145703114992314
-0.42000529773556749547
-0.40376291064762254157
-0.38228981654365978837
-0.38482009861417709740
-0.28214227629455235213
-0.30116460146875467796
-0.28154515244964883891
-0.33889255629726966479
-0.31924292610097498857
-0.32001348829441778054
-0.28019964960490512107
-0.28087240102727695223
-0.29972128785294005482
-0.30039403927531194149
-0.39479204244396320922
-0.35551897762091116961
-0.35659640327764441370
-0.37511727262699423591
-0.35756929488560440511
-0.37627117309461338701
-0.27778386016892880894
-0.27866138897696579591
-0.29710486346889641851
-0.29885193875287607845
-0.27943051929093543073
-0.31750422790084709135
-0.29808280843890644363
-0.33597288993251250844
-0.31652628293083706623
-0.33705031558924575252
-0.31837357700091106771
-0.33791966468930967338
-0.15816796118997589193
-0.16839955883286589211
-0.14320507135657636888
-0.18903724411819941564
-0.16377326664076882756
-0.17868365647496209370
-0.11379909584167882675
-0.12850208359912759781
-0.13878618124122382715
-0.15348916899867259822
-0.21934697276305653579
-0.16930409993708497862
-0.18426519481011358059
-0.19410713505669752177
-0.19928320820287179216
-0.20950503251647256686
-0.07049954254118381836
-0.08479868799412645930
-0.09498220118003619650
-0.12406686533794923644
-0.09929889191790264302
-0.13433463483421964613
-0.10956666141417305271
-0.14433881994913799751
-0.11975017460008280379
-0.15929991482216659948
-0.14905395073749422297
-0.17401923072544120408
-0.45871542678814181127
-0.48170047209078636907
-0.45837770825334545055
-0.50468551739343092688
-0.48136275355599000836
-0.45803998971854908984
-0.55062297037272123212
-0.52714910341531884264
-0.52765424388307602399
-0.50367523645791656417
-0.50418037692567374553
-0.45716141995881481863
-0.45760070483868198199
-0.48041832820836571916
-0.48085761308823282700
-0.62048655828618670682
-0.59593210241266669769
-0.59684754315133925484
-0.54835664944086059958
-0.54921337277973714119
-0.57211501722686564086
-0.57373525676203018797
-0.54991817157622913115
-0.57303045796553819802
-0.45539320589370319015