VARIABLES = "X", "Y", "P", "U", "V", "L2Error", "divergence", "vorticity"
ZONE NODES=2001, ELEMENTS=3840, DATAPACKING=BLOCK,
VARLOCATION=([6, 7]=CELLCENTERED),ZONETYPE=FETRIANGLE
-1.00000000000000000000
-0.96290995561261039093
-1.00000000000000000000
-0.92581991122522089288
-0.96290995561261039093
-1.00000000000000000000
-0.85200643789860408539
-0.88901561644878746016
-0.88891317456191254465
-0.92602479499897094595
-0.92592235311209591941
-1.00000000000000000000
-1.00000000000000000000
-0.96301239749948552848
-0.96301239749948552848
-0.94293111271927521067
-0.88586222543855031031
-0.90584106833188560159
-0.77213506316842173138
-0.79204274185436096545
-0.82899864430348602085
-0.81195042054030008849
-0.84890632298942514389
-0.83197842921945208694
-0.86888516588276054620
-0.84404405894992284853
-0.83608168000124161168
-0.88105323750010633432
-0.82204859245326589168
-0.86592759912438643788
-0.82906513622725375168
-0.90980660579550687306
-0.87294414289837418686
-0.95490330289775338102
-0.91791570039723890950
-0.80681313131448950671
-0.78678512263533750826
-0.76161982473037481700
-0.74683243940185473075
-0.72152981563528773012
-0.76674011808779396482
-0.67323329785297958416
-0.71742656129167725609
-0.69738155674413371266
-0.74157482018283127356
-0.79885075236580815883
-0.71031605842140166374
-0.74739881898982385433
-0.75450932186009933567
-0.78472370572154481749
-0.79174024949553278852
-0.86705735756846147311
-0.91206612268365716556
-0.91093636423958201931
-1.00000000000000000000
-1.00000000000000000000
-0.95603306134182863829
-1.00000000000000000000
-0.95603306134182863829
-1.00000000000000000000
-0.95490330289775338102
-0.71602214887740311955
-0.65990923458638450771
-0.69071952511083611892
-0.55009656503470061306
-0.58045564946965400033
-0.60500289981054256039
-0.61081473390460749862
-0.63536198424549605868
-0.64202401587879354139
-0.66617227476994766988
-0.76672433357870928283
-0.72939944684698820865
-0.71140007470415267399
-0.65515083636568349768
-0.63706837487838741119
-0.69223359693410557725
-0.60122284913120038752
-0.65631146191767653075
-0.61914561200479389935
-0.67423422479127004259
-0.82085642032631445097
-0.81966424819936289925
-0.86586518544151003240
-0.81827975384752749122
-0.86337979478389481613
-0.81897200102344513972
-0.90847983572026214105
-0.86407204195981246464
-0.95423991786013107053
-0.91027297920195970882
-0.76553216145175784213
-0.65528310241011700210
-0.70934335568903361668
-0.71037171519659314534
-0.76381155476828055395
-0.76450380194419831348
-0.46195612097966853860
-0.51419670334895628550
-0.48320460464087533481
-0.56643728571824403240
-0.53544518701016308171
-0.50445308830208213102
-0.61983529178561180828
-0.58862600981142576551
-0.52727482666839131653
-0.55763391110334481482
-0.56627741468806269687
-0.58420017756165620870
-0.53133198024492500622
-0.60175283029831572179
-0.49664405061229677241
-0.54888463298158451931
-0.86553288268761874313
-0.91278601152771010607
-0.91063292362398606805
-1.00000000000000000000
-1.00000000000000000000
-0.95639300576385499753
-1.00000000000000000000
-0.95639300576385499753
-1.00000000000000000000
-0.95423991786013107053
-0.43084389434526970675
-0.45209237800647650296
-0.39973166771087093041
-0.49686894050991381455
-0.44364131598512707155
-0.47404720214360462904
-0.34099353693038708668
-0.37036260232062900855
-0.39231742645775707912
-0.42168649184799900098
-0.63123378942367036615
-0.67883631027259250246
-0.62388979825366641663
-0.72643883112151452774
-0.67149231910258855294
-0.61654580708366257813
-0.77235929248452106499
-0.71789109340527401670
-0.60888432810743142731
-0.66294458138634815292
-0.43886845418461167823
-0.41578078738955481786
-0.47355638381723991204
-0.36802050570640448823
-0.42573962320214137067
-0.39190064654797962529
-0.48345874069787825311
-0.44961976404371650773
-0.54234079491453934807
-0.50739536047140165742
-0.83222661406592879363
-0.87525661415199307314
-0.82898517085582290598
-0.91828661423805735264
-0.87201517094188729651
-0.82574372764571712935
-0.95914330711902873183
-0.91553631288288372936
-0.82201174074662231028
-0.86926486958671356220
-0.78233024968325182158
-0.77908880647314593393
-0.73243388530057473851
-0.77609127938361588406
-0.68183383736212255233
-0.72943635821104457762
-0.55998490194199379566
-0.51874695475278720380
-0.56764638091822483545
-0.43543786051291855088
-0.48361653976906721075
-0.47709240763285287734
-0.53179521902521587062
-0.52527108688900159272
-0.58151450422444317390
-0.57417051305443922438
-0.50110284772533275621
-0.38485019963812583388
-0.40167989356984723504
-0.44256931713386271632
-0.41855887704138289296
-0.46021342416131721942
-0.41004881081684491084
-0.37893658418244613451
-0.35814150065402128309
-0.31964001438137401578
-0.29828649183236088938
-0.34900907977161588214
-0.25696769233368788043
-0.30755459649385458176
-0.27762709208302438491
-0.32821399624319108623
-0.38696114402178805047
-0.28455557493630168064
-0.31214345753891553636
-0.33514247909646843748
-0.34008198162266001230
-0.36396212246423520487
-0.87677877947014681848
-0.92133094487436484332
-0.91980877955621109798
-1.00000000000000000000
-1.00000000000000000000
-0.96066547243718236615
-1.00000000000000000000
-0.96066547243718236615
-1.00000000000000000000
-0.95914330711902873183
-0.78630415372194617518
-0.73640778933926909211
-0.74038169337796355673
-0.63464282533787563789
-0.63805186125208090964
-0.68524287327632782407
-0.64429506740139730336
-0.69233838038968043005
-0.64117346432673905099
-0.68921677731502217767
-0.22843938372408617576
-0.24909878347342268023
-0.19991107511448444334
-0.29142551419799916923
-0.24185749146561122402
-0.27007199164898604282
-0.14546683888396638729
-0.17268895699922542919
-0.19366216517478879178
-0.22088428329004783368
-0.44041547499585598224
-0.44539308947879335809
-0.48859415425200458660
-0.45521070905021338016
-0.49887614059958318435
-0.45030189926450336912
-0.54254157214895293304
-0.49396733081387311781
-0.58688768078631170511
-0.53716839558708440183
-0.34594836629934255789
-0.32387622689228062756
-0.36277806023106395905
-0.27971131119776226903
-0.31819451166699397326
-0.30179376904502142054
-0.35667771213622567750
-0.34027696951425312477
-0.39605778632457211419
-0.37917880285303645627
-0.50160445176046508653
-0.54799819447071684841
-0.54526988330983483522
-0.59614663093605702038
-0.59302502786139887903
-0.59029671670051686583
-0.23741141913781887984
-0.21785514594194987925
-0.26499930174043273556
-0.17737342512222556423
-0.22458027263337210222
-0.19761428553208770786
-0.27178712014451866796
-0.24482113304323427361
-0.31990381292546155034
-0.29196528884171712992
-0.83450988105011414397
-0.83679314803429949432
-0.87906204645433216882
-0.83953940633807710991
-0.88183284632546765636
-0.83816627718618830212
-0.92412628631285831382
-0.88045971717357884856
-0.96206314315642915691
-0.92272861559361163408
-0.79160304965809202837
-0.79022992050620322058
-0.74366669297810694683
-0.78858742070613152553
-0.69398088018975212510
-0.74202419317803525178
-0.29783167351839967552
-0.20279851828766920496
-0.22822361145311284569
-0.25000536579881577071
-0.25396746132543757124
-0.27604991917269672275
-0.12453871799665353071
-0.10361059710934068800
-0.15176083611191257261
-0.06094058680785823662
-0.10951911909549394419
-0.08227559195859945884
-0.15809765138312964483
-0.13085412424623515948
-0.20753267185840876263
-0.17900436324880703021
-0.28538443862275764129
-0.32736939301049405859
-0.32275454187652641291
-0.36935434739823042039
-0.36473949626426283022
-0.36012464513029518454
-0.41228252822422190027
-0.40737371843851188924
-0.39778125282160686771
-0.40275886730454424356
-0.28404393317869203184
-0.32141403643246080346
-0.28270342773462636687
-0.35840117863326043102
-0.28120736946619429020
-0.31969056993542599443
-0.14780034105000938727
-0.16804120145987155865
-0.11822725697779323806
-0.18797639866253976204
-0.08958392189282574081
-0.13816245418046144144
-0.45914686992690739720
-0.50495092376965933223
-0.45831978537039386179
-0.55075497761241121175
-0.50412383921314574131
-0.45749270081388032638
-0.59752502250690420205
-0.54937658604156403008
-0.45635170493204685327
-0.50274544764229855964
-1.00000000000000000000
-0.96206314315642915691
-1.00000000000000000000
-0.88203254132655761754
-0.92452567631503812517
-0.92432598131394816399
-1.00000000000000000000
-1.00000000000000000000
-0.96226283815751911810
-0.96226283815751911810
-0.64672181955253671415
-0.69600481430608485134
-0.64636289791621137635
-0.74528780905963309955
-0.69564589266975951354
-0.64600397627988603855
-0.79241360769885504922
-0.74447725101886996768
-0.64514952184064167096
-0.69483533462899649269
-0.03493994643965971786
-0.05627495159040094702
-0.00893930607146120257
-0.09822002791452369430
-0.05097321694508100132
-0.07729190702721083772
0.04262441129099222431
0.01684255260976551261
-0.00417440282704438850
-0.02995626150827110368
-0.50525198254973047174
-0.55135709517255360179
-0.55105603639248235126
-0.59903945736254515797
-0.59868053572621982017
-0.59837947694614856964
-0.13355026726160509898
-0.17008836860569725991
-0.14476181727692855050
-0.20662646994978944859
-0.18129991862102073918
-0.15597336729225202978
-0.24316889057377585881
-0.21742504070145113326
-0.16667339620723881088
-0.19209848937268242386
-0.28580750964441364870
-0.32810174172110273538
-0.28584034413025005694
-0.37039597379779176656
-0.32813457620693908812
-0.28587317861608646519
-0.41280334142400254560
-0.36987516059801106572
-0.28562880861942208099
-0.32761376300715844279
-0.17121633117785606260
-0.20888239509410702621
-0.20775443252194825128
-0.24713341685843231987
-0.24579291141436671042
-0.24466494884220790773
-0.32870253110129132867
-0.37159755255816906416
-0.37099676317798041536
-0.41537221124253820292
-0.41454512668602472303
-0.41394433730583601871
-0.12478080072828334757
-0.09520771665606718448
-0.07218817633434113090
-0.03795271208152769388
-0.01496483735519715634
-0.06659604716649519807
0.03274080021455009343
-0.01972368805989551874
0.00888798142967646768
-0.04357650684476914449
-0.83714640255415762038
-0.88034101639910433690
-0.83822184434320501367
-0.92353563024405094239
-0.88141645818815161917
-0.83929728613225240696
-0.96176781512202547120
-0.92403065327954458930
-0.83941834623516475844
-0.88191148122364526607
-0.79078225519481670780
-0.79185769698386410109
-0.74441810783547579522
-0.79229254759594280877
-0.69556996369400625468
-0.74485295844755450290
-0.09156728341710443364
-0.10277883343242791292
-0.04958429957260378218
-0.11408077181329658034
-0.00842174967902684438
-0.06088623795347245654
-0.01136104792009717465
0.01463959244810134237
0.03821849096766388731
0.06549599188398674832
0.08836757247698126538
0.03971413320276002967
0.13714605955267847315
0.08768227526017118023
0.11275681601482986927
0.06329303172232257635
-0.45430308942713604203
-0.50184272708414212616
-0.45562473327736785489
-0.54938236474114832131
-0.50316437093437393901
-0.45694637712759961223
-0.59805209214684251773
-0.55036972995685096155
-0.45804662352725350472
-0.50415173615007657926
0.05932619803479288745
0.03547337924991925823
0.08591159585503567453
0.01162682680623336462
0.11152882770385708078
0.06206504341134978092
-0.13112189161844256535
-0.12869351597528005948
-0.16878795553469355673
-0.12320947584732833135
-0.16382313652575414276
-0.12595149591130419542
-0.20443679720417998191
-0.16656515658973003458
-0.24491061791346879772
-0.20665959614914350406
-0.24482307560957478065
-0.24485591009541118890
-0.20383864157473594036
-0.24515498791013323743
-0.16352405871103214974
-0.20413771938945796114
-0.27939505786821755562
-0.32417918421649050131
-0.28107348762722839108
-0.36896331056476339150
-0.32585761397550128127
-0.28275191738623917104
-0.41405509024583542210
-0.37028043156146622783
-0.28427971351532643762
-0.32717473497220411760
-0.87917741816140959621
-0.92120843376866146102
-0.92237203200635620171
-1.00000000000000000000
-1.00000000000000000000
-0.96060421688433073051
-1.00000000000000000000
-0.96060421688433073051
-1.00000000000000000000
-0.96176781512202547120
-0.32272798264329433104
-0.36606090741837110647
-0.36751210899156727674
-0.41018199842275360201
-0.41150364227298535935
-0.41295484384618152962
-0.78918660283916830522
-0.74282245547982728162
-0.74122680312417887905
-0.64566514303903255190
-0.64460846652552850067
-0.69451328718050220346
-0.64182897358824519962
-0.69152788835621203933
-0.64321872005688685014
-0.69291763482485368986
-0.50063432689468734260
-0.54696556436223853215
-0.54817396455169342673
-0.59439726897524192140
-0.59578701544388357192
-0.59699541563333835548
-0.09174836653990484092
-0.04976538269540418946
-0.04994646581820459674
0.03298416598465146732
0.03322753175475284121
-0.00817838390892547049
0.03415895343289692548
-0.00789375619265383563
0.03369324259382488335
-0.00835946703172587777
0.15980700031017680551
0.13541775677232820163
0.18246794106767511012
0.08931497996791541716
0.13600554864483860307
0.11218656056090993423
0.22951138860829908839
0.20598966483798708538
0.18275846862656885961
0.15923674485625685660
-0.08931999089674233505
-0.00493163906329696991
-0.04402223155949086530
-0.04698434868884773102
-0.08361585370340959833
-0.08635787376738546239
0.16541225913664525660
0.19367845872061201229
0.13979502728782383647
0.25187005840788162514
0.19719764274487056044
0.22277425856424681871
0.14252522708185949574
0.16810184290123575401
0.08763301364820479111
0.11421841146844757819
-0.11381223104443385918
-0.15679319682070846920
-0.11623003953642654928
-0.19977416259698307921
-0.15921100531270115930
-0.11864784802841923939
-0.24279083612069835008
-0.20180640208585950979
-0.12092866193787378537
-0.16124324480157758988
-0.23767922979633526737
-0.23935765955534604732
-0.19596340172445295136
-0.24126303999161113900
-0.15488781638444340527
-0.19786878216071801528
-0.83486793651787682968
-0.83258947048159603899
-0.87689895212512869449
-0.82666272564948151125
-0.87188214295254073960
-0.82962609806553877512
-0.91710156025559996795
-0.87484551536859800347
-0.95855078012779992847
-0.91915499701213065897
-0.68940969068682544929
-0.73699040778540569896
-0.73910860545479228900
-0.78182656671744354959
-0.78478993913350092448
-0.78690813680288740350
0.06897383845352683673
0.10520687669250357310
0.06921720422362820369
0.17911607999786843815
0.14304589117996244219
0.14216147834518599868
0.10697570236205646010
0.10609128952728001660
0.07056732789747668932
0.07010161705840464719
-0.26624709003537483376
-0.31300721564109967865
-0.26953908345071181385
-0.35976734124682446803
-0.31629920905643660323
-0.27283107686604879394
-0.40703521533698028279
-0.36291412433259778725
-0.27611306736713314702
-0.31944599214220992245
0.12386605188718152748
0.23392704195774743914
0.21598402550761328089
0.17925462629473637444
0.19755005275274084564
0.16059545110005843394
-0.44689565949434539860
-0.49512508144450523284
-0.44866244114030751078
-0.54335450339466506708
-0.49689186309046728951
-0.45042922278626956745
-0.59259173849145518886
-0.54516003387845179962
-0.45236615610670283250
-0.49869739357425402204
0.25467456145780142940
0.27983773430730374265
0.23115283768748942639
0.33465758751582336261
0.28537057787375813556
0.30724766091156352488
0.23608356823169293626
0.25796065126949835333
0.18661481389218570470
0.20927575464968400931
0.21488101347615246040
0.31446846215500734445
0.29427933679419132629
0.26518145251294211739
0.27307469760103647571
0.24397889775740166929
-0.08070212416705564717
-0.04110850202313691415
-0.03819477248678296299
0.03733391789988335652
0.04050888236686978061
-0.00175667459631054235
0.04716778678795769536
0.00448650715058736618
0.04383833457741373452
0.00115705494004340881
-0.07842131025760110119
0.00716306268116111144
-0.03284166142563547247
-0.03551821695620921426
-0.07332694623503466236
-0.07574475472702735246
-0.31094555468124895903
-0.35564401932712302878
-0.35770568028697374841
-0.40126983941073424145
-0.40303662105669629812
-0.40509828201654701774
-0.23474839261233912402
-0.19303256454045680801
-0.19010172735646069242
-0.11062919484487487853
-0.10744615864531588401
-0.15170478018488442462
-0.10105464442898036415
-0.14557818589272053522
-0.10425040153714812408
-0.14877394300088828127
-0.86977672484605861314
-0.91289072404263571503
-0.91499614214911784149
-1.00000000000000000000
-1.00000000000000000000
-0.95644536202131780200
-1.00000000000000000000
-0.95644536202131780200
-1.00000000000000000000
-0.95855078012779992847
-0.22468747246628884007
-0.22797946588162582016
-0.18312785489720287413
-0.23146640211125474318
-0.14209124966309161220
-0.18661479112683176940
-0.63274129472050211209
-0.68159129119130157370
-0.63508535512633002007
-0.73044128766210103532
-0.68393535159712948168
-0.63742941553215792805
-0.77855200665579127328
-0.73371584772375331163
-0.63962919456020150832
-0.68720991165878175799
-0.49346926889445752451
-0.54004287829456965042
-0.54169869084461730324
-0.58639208650753582575
-0.58873614691336384475
-0.59039195946341149757
0.18611959799794280945
0.19312311599801715301
0.15004940918003681349
0.20743595876186626814
0.16388883752382438219
0.20027953737994169670
0.12034171628578246849
0.15673241614189981075
0.07725033485933970046
0.11365870932391947123
0.22743996992188664219
0.24587394267675904969
0.27576385984590484624
0.28175705910335469007
0.31164405979882781050
0.26381404265322055958
0.37302248081427913373
0.32439317033009196223
0.34233327030655347212
0.29370395982236630061
0.08042529932632612455
0.16751660866943102191
0.12759725857699577567
0.12396948743138912208
0.08738252268247673205
0.08405307047193277814
0.27625993841281432095
0.32300848821732958127
0.30142311126231668972
0.41629526689725676603
0.39497453281488015264
0.36965187755729317365
0.37365379873250348375
0.34833114347491656027
0.35415569312416339542
0.32674576651990361320
0.30276509267916762447
0.32396973187232247504
0.35366012695045367931
0.36424122166805744660
0.39382485582029153059
0.34405209630724142844
0.45430720645224620391
0.40398366670134994161
0.42406603113626883950
0.37374249138537263271
-0.07063544168866076056
-0.03015015687926157067
-0.02745865233288767235
0.05014885583378403400
0.05312992487961037263
0.01014413172698745008
0.05919028165178125828
0.01586581465944679470
0.05616010326569581546
0.01283563627336135014
-0.06745240548910177991
0.01935161560163433520
-0.02048705044851259136
-0.02397285139070013185
-0.06077084743874647949
-0.06396660454691423248
-0.24534142112885110043
-0.29543629839139173843
-0.25039901500225375530
-0.34553117565393237642
-0.30049389226479439330
-0.25545660887565641017
-0.39621341757413885976
-0.35058759749052770260
-0.26085184945551564972
-0.30555031410138971948
0.23444348792196101350
0.33198570772908203574
0.29094893464388493776
0.28335639724489491975
0.24919244670287560295
0.24203602532095103150
0.33265209337464074490
0.43456680932952551633
0.41482641220680477323
0.38424326957862919851
0.39392444651054192573
0.36323523600281626411
-0.81060247942641661112
-0.85878007378310727837
-0.81484904524781276436
-0.90695766813979805665
-0.86302663960450343161
-0.81909561106920880658
-0.95347883406989897281
-0.90992419609121688584
-0.82287916835934515891
-0.86599316755592226080
-0.67812200515243969967
-0.72350271558437728725
-0.72697200162323916128
-0.76705259750539700470
-0.77129916332679304691
-0.77476844936565492095
-0.07807543847384748603
-0.12506069334420821804
-0.08378662248756812980
-0.17204594821456897780
-0.13077187735792888956
-0.08949780650128878745
-0.21914651912497190578
-0.17758690155588591209
-0.09527622546513457580
-0.13631283069924582385
-0.45615293282411262243
-0.50023939013726015368
-0.45369614938720503883
-0.54432584745040768492
-0.49778260670035257007
-0.45123936595029745522
-0.58853357108545489851
-0.54218436287248872318
-0.44906751272232142691
-0.49564112212243355282
-0.20320720200621125717
-0.20826479587961391204
-0.16107298288357141391
-0.21375127854511269399
-0.11957421067870944997
-0.16655946554907019586
0.21135003827988979586
0.21526411779791335133
0.17143068818745454962
0.22331532231218853557
0.17901200302073172477
0.21928972005505092957
0.13470868372927491396
0.17498640076359411877
0.09093823525861630119
0.13115297115313534482
0.38333250988541950344
0.40283061549375953625
0.43200743225501564426
0.44308301402698602178
0.46987076115671527754
0.42176227994460935289
0.52775970446888531562
0.47988356836195045219
0.49881523281280026882
0.45093909670586546090
-0.40296560568483735798
-0.40050882224792977437
-0.34977827854556209353
-0.39838527080211494358
-0.29755984983720662473
-0.34765472709974720722
0.47292176737616153925
0.44268059206018417484
0.49153632830007681909
0.41291614403765358743
0.50964801638448109511
0.46177188027754623167
0.09391930430444264677
0.18238530418219617291
0.14145528605220383800
0.13808198489073936210
0.10032278385199254467
0.09729260546590710879
0.37809760149186955047
0.38317272216946002272
0.33706082840667250800
0.39346531186934324831
0.34650718127769541965
0.38831901701940163552
0.29954905068604759100
0.34136088642775380686
0.25349250472395690181
0.29524899266496629213
-0.05834992867657465276
-0.01806613168634076810
-0.01564521292416894485
0.06193147179530932023
0.06467266193883737524
0.02209280574516239021
0.07000492708099489980
0.02717985707841297921
0.06733879450991614446
0.02451372450733421693
-0.05257150971272886442
0.03316835843540954371
-0.00366821021017581456
-0.00965671156717238036
-0.04087182434201164921
-0.04658300835573229992
-0.85634962672697834130
-0.90209677402753996045
-0.90452722108366900855
-1.00000000000000000000
-1.00000000000000000000
-0.95104838701377003574
-1.00000000000000000000
-0.95104838701377003574
-1.00000000000000000000
-0.95347883406989897281
0.41992788083595322668
0.44082984653221601867
0.46683328085762726412
0.47999537001595771191
0.50568353357966921990
0.46025497289323702432
0.55845107010668526559
0.51264217548215629261
0.53206730184317718724
0.48625840721864821425
0.25740658424198048504
0.35101523515843946477
0.30856515844753573674
0.30405710456679169162
0.26594024037986213616
0.26191463812272453016
-0.62493644586604812918
-0.61713159701159414627
-0.67031715629798571676
-0.60083048684863959998
-0.65245575565731273038
-0.60898104193011692864
-0.70408102446598574975
-0.66060631073878994801
-0.75734175194620112492
-0.71379187002518151850
-0.49362057338912579407
-0.53108821395413896571
-0.53770703070227332532
-0.56595935040138933836
-0.57410990548286655599
-0.58072872223100091560
0.54533030261865733657
0.51638583096257228977
0.56290090076842924649
0.46292128259608433805
0.50954729829491196558
0.48970902972581364931
0.60352049626687553907
0.58321069851765239278
0.55653389728089375232
0.53622409953167060603
0.42094513654899978761
0.46886779228372049699
0.42602025722659025986
0.56695060552196241410
0.52408125434400976150
0.51790919890284148330
0.48121190316605710890
0.47503984772488883070
0.43733860751770015085
0.43219231266775859357
-0.06110877712816026319
-0.04414211578247304035
-0.10260754933302222713
-0.01041598140491083353
-0.06913253295014253064
-0.02727904859369193608
-0.12784908449537421560
-0.08599560013892362798
-0.18659525281211264414
-0.14446103368947282863
0.50821541800413605472
0.52682997892805127904
0.56212362955602579451
0.56191115640331545933
0.59606260833774560304
0.54379946831891123882
0.66615451373710932170
0.61413907164656755810
0.63110856103742740686
0.57909311894688575428
0.46785053657067388055
0.56065963601163271157
0.56286820191658015755
0.51485074138710373859
0.56490940371927123032
0.51586799710015029952
0.10220027685185133215
0.14333277905206262548
0.14521027205192141296
0.22560173198276656237
0.22788814165334456141
0.18467171385277419970
0.23231668555483042660
0.18876347880337590590
0.23010241360408750788
0.18654920685263298719
-0.43058964134849120331
-0.37740231420921593886
-0.40502634987286978419
-0.27219352986307965292
-0.29904563859730814990
-0.32441195857143512171
-0.35500149921669521547
-0.38001392454478249983
-0.32702356890700168268
-0.35203599423508896704
0.19178684061640099978
0.15125699567797160072
0.14823363386494650684
0.11063096137948325026
0.10796482880840449492
0.10494146699537940104
0.58647549528892328752
0.56009172702541532018
0.61449992047116142047
0.53390358156784745169
0.64032721710413542660
0.58831177501359355198
-0.81026428549238782573
-0.80992609155835892931
-0.85601143279294944488
-0.81031936455652009421
-0.85749381873657903874
-0.81012272805743945625
-0.90466827291663798327
-0.85729718223749840078
-0.95233413645831899164
-0.90338252347208891635
-0.03849028284088180929
-0.00128666870904597117
0.00109487279208387201
0.07264728048654373049
0.07528963389209257506
0.03581071184095838134
0.08035223797467583307
0.04072355538337985026
0.07782093593338421100
0.03819225334208822126
-0.65213519191296243083
-0.70343989697728526167
-0.70376046072163545020
-0.75687963076690267794
-0.75668299426782215100
-0.75700355801217233953
0.39709298834799539035
0.40072066482664753240
0.35464291163709160681
0.40783957893081540513
0.36119593765828239551
0.40428012187873146877
0.31455229638574933038
0.35763648060619845914
0.26893380934896893297
0.31155872741664253356
-0.46805728191350437495
-0.41785910085295230321
-0.48071670248920944646
-0.44287152618103964308
-0.54077359466892449547
-0.50590245822167423384
-0.03819923631646701678
-0.06598249122802320177
-0.09691578786169871562
-0.12304891119701877322
-0.15360462200673730138
-0.09451570121252098056
-0.18416033281645580177
-0.12507141202223950871
-0.21475087697265343722
-0.15600470865591500869
-0.02152362149519458298
0.05785423267126761637
0.03535622736785939274
0.01822555007997163357
0.01247012298147428047
-0.00439294420730682381
-0.18087190437599748316
-0.23869489755497616534
-0.21142761518571598356
-0.29684819838583570428
-0.26887026807614217150
-0.24160298570688198971
0.71078747465425540231
0.66477552334465528361
0.68357086725862814536
0.61876357203505527593
0.63755891594902802666
0.65635425986300088841
0.57326163825197029578
0.59083223640174220570
0.62993737806493821374
0.60962758031571506745
0.27122021901954695977
0.36390984716145269307
0.31998011539208992549
0.31726620588891962793
0.27614840047346017604
0.27393412852271725733
0.69807938158557225616
0.68537128851688911002
0.65206743027597213747
0.67576290112699921586
0.64071694842731741204
0.60741309018640043949
0.57239007162700583642
0.57782953773204925874
0.52952072044905318382
0.58818139828466908803
0.53898323504611500567
0.58300546800835917338
0.48978507180756097883
0.53380730476980509103
0.44162519183845211357
0.48549848748680901611
0.59935787697498676962
0.64026468384328838468
0.60156644287993432663
0.72039046959725161479
0.68357325400581736563
0.68032757672026999973
0.64675603841438311647
0.64351036112883575058
0.60685332196817276529
0.60481212016548169252
0.22819171243269872895
0.18844083718942367112
0.22934916047880279932
0.14868996194614861328
0.18959828523552774149
0.23050660852490686969
0.10934744451357175654
0.14997347881206010700
0.23141164703986866202
0.19088180210143923521
0.62738230215722490257
0.67943722554782048917
0.69271993735853176766
0.65360992891484659406
0.70655520347789169122
0.66649231060091007617
0.54335439759288517436
0.49852739690110137172
0.49415623435433120303
0.45318348791595841618
0.44962403086387447981
0.44525286831710425561
0.11729399042664170882
0.11476268838535008676
0.15423574287860758458
0.11198979791912058723
0.19121372765565314289
0.15146285241237811281
-0.85547644681861956251
-0.90063352908071891978
-0.90265090099867850704
-1.00000000000000000000
-1.00000000000000000000
-0.95031676454035940438
-1.00000000000000000000
-0.95031676454035940438
-1.00000000000000000000
-0.95233413645831899164
-0.38297633731699032289
-0.41095117541728543031
-0.44583393895324741063
-0.46473994175626459624
-0.49898090764099722882
-0.43784555858677498552
-0.53322187352572991692
-0.47208652447150767362
-0.56702618018718475845
-0.50696928800746965393
-0.66955957957115697088
-0.70351828344409028659
-0.65176298711070601577
-0.73747698731702360231
-0.68572169098363922046
-0.63396639465025494964
-0.77389817593677179275
-0.72045844214715448750
-0.61739844074944727481
-0.66870314581377010565
0.10801842384539755981
0.13568460971611928656
0.08552041854198934312
0.19136333929786530916
0.14091306273990095166
0.16352397450699229786
0.09046278618193659415
0.11307369794902794036
0.04002340238851288118
0.06290950677489799692
0.73171002379204497235
0.70449341639641771540
0.75263257292983454239
0.65140494053915209971
0.69928938481142866035
0.67782182233721477438
0.79773524474983803501
0.77518390883983623318
0.74851231478063340319
0.72596097887063160137
-0.61956323650655442670
-0.60176664404610336057
-0.56956689344195188252
-0.58359413408799243328
-0.51715341759910826713
-0.55139438348384084421
0.01889768430626759949
0.04821135001744603077
-0.00888557060528858550
0.10662485761628047454
0.04925342333465283773
0.07741810381686325959
-0.00811801094697479908
0.02004666953523561584
-0.06558346107199677921
-0.03705025108749900042
0.27657464519209551401
0.32040636011072531897
0.32083260482936065694
0.40885910653942125759
0.40987863414802716555
0.36492937477005854552
0.41120178512433042117
0.36601719497684553906
0.41054020963617876561
0.36535561948869388349
0.61448640364304663031
0.66202220176413095754
0.61992586974809005262
0.75532633465490883751
0.71510258979031726678
0.70867426820951995303
0.67487884492572569606
0.66845052334492827129
0.63153012160519739204
0.62635419132888747740
0.74677125872321714617
0.70011919227782815067
0.73821618279152534381
0.65438912008925709252
0.72930332619438842379
0.69248611060295428565
0.74339734725974770946
0.77600721986523990559
0.73068925419106456332
0.84173720143748664846
0.79671078501159298124
0.80887221065136327702
0.75168436858569931402
0.76384579422546960981
0.70891944116140437337
0.71852782855129415651
0.27374808823626056720
0.27490553628236463757
0.31930446403982243320
0.27566960667713374944
0.36525312458207642718
0.32006853443459154507
0.14496017629736343557
0.21912286194397739836
0.21005401145525604001
0.18214487716693181230
0.20070867537656067459
0.17286931058568766328
-0.15104307849226236704
-0.17903724578750596086
-0.20886607167124104922