VARIABLES = "X", "Y", "P", "U", "V", "divergence", "vorticity"
ZONE NODES=10527, ELEMENTS=20648, DATAPACKING=BLOCK,
VARLOCATION=([6]=CELLCENTERED), ZONETYPE=FETRIANGLE
0.00000000000000000000
0.06871939723170414349
0.00000000000000000000
0.13743879446340828698
0.06871939723170414349
0.00000000000000000000
0.10000000000000000555
0.20000000000000001110
0.16871939723170414904
0.16122562540381846219
0.18501245634422860964
0.09250622817211430482
0.21995020135973208930
0.25123080412802795136
0.30246160825605589162
0.24373703230014226451
0.00000000000000000000
0.09250622817211430482
0.00000000000000000000
0.30000000000000004441
0.40000000000000002220
0.35123080412802798467
0.28971232575018079913
0.34843690170609442625
0.39441219515613301638
0.15715761204371800352
0.07857880602185900176
0.17108503419397330658
0.40046618007040135634
0.44923537594237344939
0.49847075188474687657
0.44644147352043994648
0.30448258749969142611
0.24474752192196003175
0.34944739132791224900
0.23082009977170470094
0.00000000000000000000
0.00000000000000000000
0.07857880602185900176
0.54923537594237348269
0.50000000000000000000
0.60000000000000008882
0.49497131877064243222
0.54700059713494941782
0.59553044238515184805
0.48155148444966927590
0.39301703597468035101
0.43798183980290117390
0.30489753846495432077
0.30531248943021721542
0.23123505073696759560
0.53854096341741053422
0.07449289555056849699
0.15307170157242749875
0.14898579110113699397
0.59871312388377595504
0.64947774794140245014
0.69895549588280492248
0.64724296913397838527
0.22714914026567711858
0.39343198693994324566
0.59103727299266495265
0.64802675196040626648
0.70052306153566068492
0.00000000000000000000
0.00000000000000000000
0.07449289555056849699
0.37775623038198369308
0.46587572789170972332
0.45019997133375011522
0.74947774794140253896
0.70000000000000006661
0.80000000000000004441
0.69769234178854300232
0.74940486853736953954
0.79985424119193426762
0.75018865136379742076
0.29070819504950201617
0.21984699307531951895
0.29801034223985961580
0.55153696642863581090
0.66102275497163154316
0.62152244840760240141
0.37045408319162609345
0.53586120987067631383
0.14145627351403280980
0.07072813675701640490
0.14522103230758490189
0.85003181661950300008
0.90006363323900595574
0.79950956456090538360
0.21608223428176742686
0.84995893721547011168
0.80159981348200348705
0.85126540331014033391
0.90267656542834640021
0.71169593029072819590
0.75119623685475733765
0.80186941217385410141
0.35726776734758186604
0.43701365548970594332
0.42382733964566171592
0.85227298880110025081
0.00000000000000000000
0.00000000000000000000
0.07072813675701640490
0.60029550781762319733
0.57906856722764399326
0.51463426928069710975
0.90000000000000002220
1.00000000000000000000
0.95003181661950297787
0.50144795343665282683
0.95055308667402493850
1.00104254010904392125
0.90044839065048909443
0.27534937793323888133
0.20840282572363583169
0.28302878649137042100
0.95185955276869516073
0.34958835878945027087
0.71593747054258227713
0.66872995947509239478
0.75890344135821818927
0.64750301888511319071
0.06708073415577420207
0.13780887091279059309
0.13416146831154840413
1.00873987038274193218
0.90530464127829801679
0.95570821790554416619
0.20475542312239364273
1.05010437113409604848
1.10020874226819209696
1.00013618775359902635
1.05062564118861789808
1.00257190343613467043
1.05175489077648354197
1.10246724144392294065
0.48532345748472482949
0.56294407127571599592
0.54681957532378799858
1.05560355591333232539
0.33830276562088490433
0.41254174647709634938
0.40125615330853098284
0.78816623002849484081
0.83113220084413064193
0.86039498951440729346
0.93456742994857466833
0.00000000000000000000
0.00000000000000000000
0.06708073415577420207
0.71596653518653419201
0.71599559983048610690
0.64753208352906499456
0.47403786431615946295
1.15010437113409613730
1.10000000000000008882
1.19999999999999995559
0.63140758757713699723
0.26111971431215091899
0.19764059131184966156
0.26823454612269492792
1.10036401645517134540
1.14994711753474554428
1.19968549280129899159
1.15107636712261096612
0.78819529467244664467
0.33118793381034095091
1.10674923185518192525
1.15361291738577254051
1.20475859332762191833
0.12722378885937879467
0.06361189442968939733
0.13069262858546359940
1.02451005750856904974
0.94245252351148822711
1.01662496394565549096
0.19417175158576485683
0.46029524964526913333
0.53307696065289755794
0.51933434598200722832
1.24985895157134141442
1.29971790314268309530
1.19996332270543759613
1.24970169797199104345
0.67860344469283317981
0.64121128955518025272
0.59401543243948418116
1.08473402475338498441
1.18274338622582497749
1.16072817912402803664
0.87670792651307838383
0.89302086351174958523
0.80450823167111784606
1.09261911831629854319
1.19878229513241896242
1.24739142081110698790
1.29509734882091498420
1.24992797107426856229
0.32117904224330062757
0.39124726174149071500
0.38123837017445039166
0.58027281776859374052
0.95876546051015931749
0.45028635807822880999
0.00000000000000000000
0.00000000000000000000
0.06361189442968939733
0.24764549357146720121
0.18743464121542299794
0.25438260394180906010
1.29999999999999982236
1.39999999999999991118
1.34985895157134150324
0.74506872147027647380
0.77414184311006695172
0.70767656633262365773
0.83358135331090821296
1.39769879460894896894
1.29869214370512398027
1.34870834887581603212
0.31444193187295876868
1.34639807171493197657
1.24432257353151842771
1.28388655373541493709
1.22230736642972148687
1.09723279017576036409
1.16534185098349007959
1.16995552284295190049
0.64527871294484828724
0.64934613633451632175
0.58434024115826177503
1.28905137129811597774
1.33422074904476239965
1.37334414926861003714
1.03754051006505498833
1.05057096262154092692
0.97179591306664525607
0.06022460844534564817
0.12383650287503504550
0.12044921689069129633
0.18404735523107923489
1.32861535150201248712
0.43870935322194781758
0.50775734112572623591
0.49618033626944518799
0.71174398972229169225
1.11026324273224652472
1.39978290037777064470
1.44992394880642905264
1.49984789761285797205
1.44877334611090358152
0.57276323630198078263
0.30489485896055967817
0.37169129726205130115
0.36214422434965221065
0.85219449537374103443
0.91163400557458240669
0.93024714763741522816
1.27584197639945395863
1.26779739906349298018
1.21426278909376050841
1.21887646095322255135
1.44355831687113100870
1.48941783913331304845
1.39225759397711401633
0.99040905512947807754
1.43138099420096143177
0.42916228030954872708
0.00000000000000000000
0.00000000000000000000
0.06022460844534564817
0.73172671928973742617
0.79412457267751279666
0.81410730224495864160
0.17717876486346822995
0.24077690320385619627
0.23390831283624519132
0.29802626859294867323
1.34623868717707839693
1.39096748494367616900
1.40859082061874207881
1.54992394880642914146
1.50000000000000000000
1.60000000000000008882
0.87217722494118699039
1.18510355524774291247
1.20025158765253392446
1.12541127513703731466
1.49914900166383535662
1.55022355316578996920
1.60059920871872196635
1.33819410984111764051
0.58939484767149763478
0.54278759197047143914
0.61937049200300697827
1.54500852392601739638
1.28972899673102547879
1.31166059439855797741
1.24080805862075482793
1.06658703181519509684
1.08260310100884904472
1.00642512432313213644
1.46369920294446087539
1.52173604787681249206
1.55405425662031193568
0.47640578199300870343
0.41927500317133048480
0.48629305913122694571
1.25595609102554606196
0.68037681895871882087
0.76275740191394003631
0.71140750158292131999
1.48132253861952700724
0.05701814083492234841
0.11724274928026799658
0.11403628166984469683
1.14142734433069148459
0.17397229725304494408
0.65040117462720947739
1.36012570750864991709
0.28612237352341174379
0.35024032928011528121
0.33833643421057829626
0.53290031483225319686
0.88991177780548602616
0.94798170050171437495
0.96571625336601341072
1.65022160508111204180
1.70044321016222399479
1.60014555388754109444
1.65052120944047286955
1.02415967718743128323
0.40737110810179349984
1.65679275489131550003
1.71298630106390903372
1.60120207009861115210
1.63352027884211059572
1.43846708256063404718
1.46834334450252601556
1.39000196945054188546
0.00000000000000000000
0.00000000000000000000
0.05701814083492234841
0.85397824109065900711
0.78269287133679021906
0.83404277166780882435
1.50223076735280747229
1.57496248535359262277
1.59587071408687308782
1.35104127018950093131
1.27564642892101742788
1.33135093229402956538
0.90984724722833620891
1.23288788880133304282
1.15774549490509093275
1.21656973822693359466
0.16774695991708371556
0.22768297550028393506
0.22145763816432270654
0.27989703618745048752
1.53210702929469944067
0.54564700893558770733
0.60214154177483214525
0.61488823587816676675
0.66314786873054409888
1.70000000000000017764
1.80000000000000004441
1.75022160508111213062
1.40969230734601347343
1.75126193729198442739
1.80208066442174508204
1.70133993657023352419
1.75753348274282705788
1.29196457949541709809
1.09863861844006249768
1.11467413587127595065
1.04019519461864473620
0.41602298855804492606
0.37717971138431161116
0.44621438527552681474
1.74068131532581893417
1.64736778597306532390
1.72683380819486398394
1.17378101233630438571
1.66827601470634601100
0.05438773040037044731
0.11140587123529280267
0.10877546080074089463
0.80113433050476579034
0.74829041991887246255
0.72984896075089689127
0.16511654948253179365
0.92642628553324413154
0.98229529167092133335
0.99887432997582925598
0.68158932789851967016
0.52019577255107718461
0.49830077727204291627
0.56754200421462197568
0.32172773202961452155
0.27159268509696860017
0.33003208312009640890
0.46810938055456108309
1.63300801486854108013
1.55067567968553365887
1.61443936447770708398
1.05677423292355254780
1.48747323766141059664
1.50660313082029495568
1.42882220050489783247
0.36887536029382972380
1.80022471171534137468
1.85000310663422951052
1.90000621326845897663
1.85104343884510202933
1.85118295822441591980
1.90028525202708697961
1.80663577654549811768
1.36765410131738462951
1.38426693244526810567
1.30857741062330057424
1.90186309934706310187
1.82127220733644090700
1.80742470020548617882
1.56980557284441801791
0.00000000000000000000
0.00000000000000000000
0.05438773040037044731
1.68146573088314754685
1.75387103150262047002
1.76706074767942200587
1.26356066076825190869
1.18911739831976381865
1.24822427478479247576
0.81764060328750787221
0.87048451387340108898
0.88699078665614317085
1.90107417568707504074
0.94293255831598621342
1.44543503163278153067
1.70003438127398154300
0.16099409035997755413
0.21733517904176846702
0.21321271991921419975
0.63057034068447370689
0.69727143270482661030
0.64625244549078064704
0.26747022597441438840
0.58322410902092891583
1.32391379660676000718
1.12969632275004006061
1.14471850962880394853
1.07179641980231665777
0.42573859640780781222
0.42088079248292636914
0.47296718447944252617
0.37373316421871116688
1.95000310663422959934
1.89999999999999991118
2.00000000000000000000
1.99807059462661396054
1.90007562952417963231
1.94903840394753657961
1.94917792332685047008
1.20413958519852792861
1.90954121894852102415
1.82511126713716986814
1.90570215914779206301
1.83830098331397140399
0.05232939270516615005
0.10671712310553660430
0.10465878541033230009
1.64840592649855599561
1.66380383812857091108
1.58520348447443293338
0.15893575266477324992
1.46082646726481057975
1.52199456645232400476
1.53738600208435305383
0.76359522623918785200
0.83294540960782326167
0.77890003255950324146
0.95779371830376303087
1.01373548996360618446
1.02859664995138300192
0.71257623902514199976
1.71333400426492410418
1.78036037067036456705
1.79365999366130690618
1.08665757979009347522
1.99405371055832447702
1.99326478689833641589
2.08624432176958585217
0.31802545569689277816
0.26561908780805348895
0.31987659386325362210
0.59570677320769860330
0.54516110092461644854
0.53267843673784676106
0.37188202605235032294
0.48544984866621210262
1.60059492010646198246
1.33855464281882730049
1.39890777865733539898
1.41354862486940291433
1.72873191589493879761
2.04215745819809990635
1.99994892591958439709
2.04994581928535524185
2.09989163857071003960
2.04898111659866177803
1.27766128219123742404
1.29176190361422293940
1.21824020662151344396
1.47546731347687787306
1.98477843355760552591
1.98093937375687656477
2.06001564816669002767
0.00000000000000000000
0.00000000000000000000
0.05232939270516615005
1.91805029351023392792
1.92655936807194705374
1.84681005787568452980
2.07312998496813793992
0.20648593925381258929
0.15557236233207244469
0.20984932958651339452
1.86010968086662709098
0.90134779347761029289
0.91570480029907741493
0.84730241642929038370
1.35265526424181281584
0.97215072512523015291
0.67363952063860654818
0.65994598306469365312
0.72626977659905489482
0.26225569747535271148
1.10034700760756409821
1.15840793744627434947
1.17209736526374497245
0.60940031078161149836
1.67740435853179548076
1.69100487893502005043
1.61419544050968655213
0.37742294080155247560
0.43127951115700996487
0.43682042590621211753
1.23192963443898406695
0.49099076341541425528
2.14346349664035518146
2.09937663306886967973
2.20068267151112495483
1.81948238606047096866
1.74164311209452105089
1.80657118986088893742
2.15028715504091749722
2.14994581928535488657
2.10000000000000008882
2.20000000000000017764
1.48906489524899132704
1.55098358385646650781
1.56458116562857996179
2.05836045884962492991
1.98395083889907297703
2.05918805350815770083
1.99245991346078588080
0.10052362789504970531
0.05026181394752485265
0.10259120665269100270
0.15350478357443114730
1.75524363249774539852
1.62779302228180000611
2.14496784501786219579
2.15808218181931010804
2.22992004186903391982
0.79232839950393718631
0.86073078337372432856
0.80575676644837124218
1.94935776410875294395
1.87150887888503003609
1.93795856609034999884
0.73969814354348883967
0.98537239054764325097
1.04181831537379609998
1.05503998079620897599
1.44014661688364098424
1.36595426024893207284
1.42684762087652194928
1.11356867302997697422
0.25689281067210323339
0.31266256889364330007
0.30729968209039382199
1.88442007508461184528
0.57238084405137246158
0.55877097248799445506
0.62301018234498950488
0.37206005399830299751
2.19956268217547101784
2.25678185704624034713
2.31288104258135618352
0.50460063497879226180
1.24475539668936985294
1.30458766586460894743
1.31741342811499495546
1.50236389125611058404
2.25109316418844418450
2.20069764771823628280
2.30150365686576297009
2.27140054222519527372
2.25075182843288157386
2.11532755651368020722
2.11615515117221253405
2.17229465417773504043
2.20110734802338470217
0.00000000000000000000
0.00000000000000000000
0.05026181394752485265
1.37878002249931785883
2.07821005555838800305
2.00238471181516741737
2.06828525720400646648
1.83172095047141048063
1.84395951488234999260
1.76748219690868513254
2.01378390983357036248
0.19749836161345998842
0.14901099475425483298
0.20199215043363627498
1.70345782565457559699
1.71591077237413092149
1.64024596900135533062
0.87357296754585711529
0.92854698447121020166
0.94138916864334298840
0.25239902185192691908
0.99821457471977592668
0.69725895511270763460
0.68544923787565714690
0.75150786078053943839
1.18414477115467464685
1.19619217704560409921
1.12561607892090664862
0.63481989958203999258
1.97315297062043604193
1.89631767834045339427
1.96125536736459449294
1.25680280258029952734
0.41754008857090951778
0.39825975123560697355
0.35277971666300039777
1.77993514362824045705
0.49566530450480872361
0.46624286520551039281
0.53402307427809059259
1.57702967597556997781
1.58947818632255999383
1.51481240160310060006
2.35989390730126125106
2.30379472176614541468
2.40690677202116587452
2.35420521444346420026
1.90855624275139312829
2.29999999999999982236
2.39999999999999991118
2.35075182843288121859
2.33319699107144096217
2.37467749142760187198
2.43647394027384800452
1.65269447934834534664
0.44696252787020784858
2.20044663517846483813
2.12940354701404466198
2.18637064467809993928
2.13932834536842619855
0.04787676228205673540
0.09813857622958158111
0.09575352456411347080
2.27022360792533106633
2.31052717398162821283
2.24141091407968140459
0.14662594308878673655
1.39095692877717791447
1.45232352316150103988
1.46450042943936109552
2.10221468229375618719
2.02578622320125445455
2.09021236892607209512
0.88605216861257463101
0.83071516858180627363
0.81823596751508875791
0.76398706184725695412
0.24385621081536706933
0.29875687105383397224
0.29021406001727412249
2.03768382645709600354
1.00950527747659890565
1.06633068355303195496
1.07762138630985493393
2.37350055712773810868
1.13690678167772940554
1.52698930788096065569
0.64364284346238753720
0.59002673181206743980
0.58120378793172000620
0.34423690562644054802
0.54284601815843802619
1.34014592249749697750
1.26816904977155053835
1.32877967530624596648
1.86682088114293209813
1.79136582675853150981
1.85539019801264104537
2.25548690458004674753
2.46240550451499018436
2.51790423700881493829
2.41539263979508556091
2.47718908864133169345
2.40216044827208596857
2.50281723967840896705
2.45486200584978764283
2.45140861983920466116
1.98455718983099238528
1.99596140904154895068
1.91996046196194947164
1.40232317596842914753
1.73894502419185492670
1.66421160525720734924
1.72742789828299292409
0.00000000000000000000
0.00000000000000000000
0.04787676228205673540
2.22891187410867885887
2.15356096483353365301
2.21467925464357184850
0.14149867545248254186
0.19237109397715579373
0.18724382634085159904
2.16556327820121730099
0.49010939222224159106
0.48455347993967451403
0.44140661558764071604
1.93139114509224052441
0.23872894317906284689
1.80288295266739351241
0.96525691392474077812
0.89798604125327352588
0.95332304128404188326
1.02143915011729791154
0.77270134569486526033
0.71468752280792424703
0.70597323896031594082
2.04944046183790851146
2.11397131767456869511
2.12572795305538120303
0.65235712730999584341
1.60099743794049809154
1.61251668955843596720
1.53850855949889853136
0.53729010587587100467
1.14632240712409694261
1.20560780249197163627
1.21502342793833895129
0.33471534245840439681
0.38873818806757076683
0.37921662489953461561
1.27758467521791807542
2.45349786961020122078
2.47052179894655399295
2.39052448646409132493
2.06084468104846507686
2.35107130242146800114
2.27575896879996619759
2.33079923820154810699
1.67573085687514544695
2.50723329557573704207
2.60755981913030820962
2.56273202806956135191
2.55518852940435881038
0.43188505241960456482
2.50000000000000000000
2.60000000000000008882
2.55140861983920430589
2.53427424985371629873
2.57498939822119954357
2.63207455943358414885
1.41355193931459099943
1.47572919278552294742
1.48695795613168502136
2.28999158826507365205
0.09056707240311402674
0.04528353620155701337
0.09316029848361374877
0.13890544937198281983
2.17868115311553500746
2.24202974902299612125
2.25514762393731382772
2.41079655068401077500
1.54973732284506038326
0.27527422478164742525
0.23125902556124949827
0.28274414239946077387
2.00649462993604821293
2.01702785083054703108
1.94192436598673956460
2.19043778849634751538
1.88780963872876794696
1.81337733146031143683
1.87731525993585002254
2.58072762517850007313
2.52562471206252681100
2.50860078272617403883
0.86232026289360863558
0.84651771573770751012
0.91378858840917476236
0.78850389285076638579
0.32724542484059104819
0.57973495214627235317
0.53214421604297346136
0.58488084197916989648
2.60640109230604188895
1.08536162141929248826
1.09310185652873004258
1.02917938522673546586
0.64721123747709830010
1.15406264223353449694
1.35009135240392685873
1.36003678231035696200
1.28753010512434795665
2.07170181537065278832
2.13658508737756935858
2.14744222169975707004
1.74955900958099896947
1.76017299497014301224
1.68634484226428948972
1.42349736922102110270
1.95241874477965748902
2.66027758262404034895
2.71299534611777204418
2.61544979156329349124
2.65498851983997585791
2.60261723011402645866
2.70241722054964395028
2.67253495277567809651
2.65120861027482224159
0.47663472623495062308
0.46871597253022678764
0.42396629871488067387
2.08223503626515205056
2.36715928532564801046
2.38324726822982801977
2.30607957116925366137
1.82399131684945547960
0.00000000000000000000
0.00000000000000000000
0.04528353620155701337
2.31919744608357092375
0.17663741806828439640
0.13360224523569921851
0.18194062220456799772
0.22595582142496589695
2.43040009178841032167
2.49012534005095353962
2.50972888115535308629
0.52422546233824962592
1.62331473340663201554
1.63411277725482806389
1.56053536669325643160
2.27856576767840701692
2.20214686036689410997
2.26685669580786042232
0.98716815591015383280
0.92474420940188117868
0.97621253491744730546
0.36229388236368098575
0.31878405357266420550
0.37075525363160777292
1.04013500621944188218
0.78009664242758081087
0.74739208261775247344
0.82120845266059472323
2.21300399468908182143
0.66628398865256988071
0.62300947039942111694
0.69048575573024706387
1.69714288611248553806
2.60654630440305146166
2.63236498362760285019
2.55144339128707819953
1.15757319408260550553
1.21853397978740995988
1.22204453163648096847
1.29104065697341896524
2.44648807469259033098
0.41550492744695388669
2.68162817456175162079
2.73118178968991909272
2.65595470743420936088
2.03577059229004087015
1.96179011550940440856
2.02639922156029417266
0.72319031554007540130
1.43459244169648147960
1.49805302860714562030
1.50914810108260599719
2.57104693239147774619
2.70602766575032926966
2.80449551237034988560
2.75874542924406096489
2.75345636645999691794
2.70000000000000017764
2.79999999999999982236
2.75120861027482188632
2.72278374279126378354
2.76324413613335728712
2.81349292614894297415
2.15714085379404973963
2.16683948588834196514
2.09193366835944427606
1.57163043916871703054
1.90658613641013707785
1.83337956569013993402
1.89719788756945240138
0.04250056117141847584
0.08778409737297548920
0.08500112234283695167
0.13081927020556066710
2.33261881104233292916
2.39666863318859002518
2.41008999814735203060
0.21794862871876269361
0.26726703207544422192
0.25925983936924101858
2.77233735791943125548
2.34432788291287952376
2.68177338665876074941
0.56889281360064303250
0.55805067505501382286
0.51338332379262030525
0.31077686086646100216
2.10130503908919141764
1.97117836435008886298
0.89750008091031940882
0.87991017190196396669
0.94233411841023662081
0.83879836166895005434
0.61216733185379190729
1.03893496443568200682
1.09190181474497016723
1.09070177296121006982
2.29926436769244313396
2.22335329469609987996
2.28891506768542507544
1.77961701428180107953
1.70686489576831457171
1.76989500462597204589
1.15637315229884540813
2.46272240809453180077
2.52596321455729455607
2.54219754795923602586
1.30360357254101200120
1.37259969787794999796
1.38516261344554303392
0.45242737051698911355
0.40736062644033504965
0.46057167152360795059
1.44715535726407451556
2.23305192679039254955
1.84310157534596896767
2.85432927122827706512
2.90416303008620380055
2.80857918810198814441
2.80174252699165826641
2.90106783343367302663
2.85278167290201167816
2.85882797811757338735
2.85053391671683620245
2.65447657471235753945
2.67658816579711178463
2.59315852347623243546
2.47614377305329380619
0.69632295646030706315
0.75322928334781258375
0.72636192426804435662
0.50523902278600152371
1.64441439044829751381
1.65471600364176696374
1.58193205236218648047
0.00000000000000000000
0.00000000000000000000
0.04250056117141847584
0.16464098566280019331
0.12482105400281856555
0.17063920186554229486
2.82354054920813712926
2.72795276641786976768
2.77736116944902811099
0.21195041251602059207
2.60939285687817390524
2.35568081539407092606
2.42144293062854343290
2.43279586310973483521
1.71716650896178402164
0.30080793734676780637
0.35232495884398778996
0.34235603532429459417
2.85879828950038827884
2.90410365285183402762
2.81764272127087656017
2.36603011540108898458
0.95575920759267329885
1.00059324509259051084
1.01401833427502707785
1.05236005361811857384
2.18317735271427215693
2.10947397250215651354
2.17500841930130706103
2.04357595736747388315
2.05138132244490689615
1.97898372942752187598
0.39739170292064185386
0.65415132020122868095
0.64201865174988748119
0.60003466340245070754
0.81566943580649720058
0.79788303911703906124
0.85658475835840830470
2.75006435750262445694
1.17908371319355143036
1.13612289475062189226
1.11341233385591609206
0.68419028800896586340
0.77101568003727072309
1.24701461443976890919
1.32857365534430016396
1.27198469724305707196
2.86382210102998557844
1.45856595692655144347
1.52055870074508314715
1.53196930040756007507
2.31718246181668119377
2.24201097385251157945
2.30822341475456216386
2.90263717165035384227
3.00077883093035779893
2.95247093050828102179
1.59334265202466340838
2.95092333218201563483
1.92284435954330801266
1.85123068691255454610
1.91471524797672243423
2.11727933757958952654
2.89999999999999991118
3.00000000000000000000
2.95053391671683673536
2.90529199207319077658
2.95062704404182163387
2.99709105799743902310
2.48886316018630493474
2.55491693509224671033
2.56763632222525783888
1.20405379599683959313
0.55042454374478477774
0.54279841243455584365
0.49761289147577247860
2.25017990726547667535
2.95059735542463652536
0.03960031459419344896
0.08210087576561192479
0.07920062918838689792
0.12192080742559355255
1.07507061451282437403
1.98711284099410745441
2.50021609266749633704
0.24813696342215812995
0.23701408747507521357
0.20082753656893770344
2.62339077755308203166
2.69058608647201991104
2.70458400714692803746
0.28968506139968491775
1.78850833477338566624
1.79739965526497003090
1.72605782945336860834
0.59240853209222166242
2.37586656855319588999
2.44263231626184129652
2.45246876941394820193
0.91203496471551381841
0.97029409139786770844
0.92656984852070822800
0.87111964216360271429
0.39310255618910006081
0.44813822378544732050
0.44384907705390552746
2.83455609842761102612
2.84557164764708492299
2.76107990672209835381
2.38482561561531447580
1.86012200740413913280
1.39937277432043805092
1.41358293519533306792
1.34278381621919518096
2.63611016468609271612
1.47277611780144646048
0.73000333495819058616
0.68601099335403903368
0.72818262961311752690
0.77283638538234389337
2.98361738729200220988
2.90357896825006989161
2.94386052007191789670
0.49332374474423068555
3.04922683044586939616
3.09767482996138099338
3.00091893002379261901
3.05032648857562005418
3.00047098982727744598
3.09987414622088186533
3.04738294397941000824
3.04993707311044115471
1.66441832874622797078
1.67412065385068897783
1.60304497712912441543
2.77507782739700648023
2.18899270279720870036
2.19480805288014479970
2.12309468766252606997
1.02974234973744649402
1.09079462997524379020
1.04546636519986591018
1.73576015455782961538
0.00000000000000000000
0.00000000000000000000
0.03960031459419344896
2.33148932752937687596
2.25733334012182451644
2.32433589467302903486
0.11580649552136745850
0.15852667375857409926
0.15241236185434800521
0.19471322466471160939
2.51091715601243414824
2.57833738557019565008
2.58903844891513301718
1.17096230942408396913
1.15354260208735293070
1.22147350333357040952
2.98973387492034170521
3.03622757749314420295
3.07536409698884893871
2.06281161427616588355
1.99282798690973694811
2.05709646836053661190
0.98601810686028712460
2.52075360916454060956
0.28719556609076202225
0.26210482678291863179
0.31477580070752830821
0.63187684932152188289
0.58733763087803891878
0.63694775053570462653
2.98996453162154685046
2.91776808963431566468
2.90675254041484176781
0.34995609507265401650
0.40070261593745948314
0.35755615482101338332
3.02949074214042557429
2.98679095945677453017
2.26314869020476105987
0.88091927029056715792
0.83526869206042608784
0.82546906393346164421
0.68094009213985629003
2.12880983357815534163
1.10821433731197505068
2.39332909335851606869
2.46097224715714979482
2.46947572490035094361
0.78263601350930833700
1.92988115040399987876
1.93691794126469196691
1.86715879826483099890
1.28700828318935855954
1.35780740216549666854
1.30203186913566004712
1.48328470875798590356
1.54247789136409951816
1.55298648232063896124
0.32237586045588773054
2.71596656885742682164
2.72734913056792516173
2.64749272639659150030
1.61355356808566385851
0.53194864168967703755
0.48789885937179128250
0.53737352706211649611
2.40048252621486390979
3.09979231108754138546
3.19880579124472497199
3.14824031060305298269
3.14933996873280364071
1.23649708927987189711
3.10000000000000053291
3.20000000000000106581
3.14993707311044168762
3.09272488928287625498
3.14301677526484724012
3.18835872056831304278
2.85671361936418799488
2.86785559108129106676
2.78621979911410955211
1.99986477777042903625
2.65819378974152886741
0.03695555494050819373
0.07655586953470164269
0.07391110988101638746
3.13186140877858099074
1.80571418998368105058
1.81402872470239207026
1.74407468927654063506
0.11316173586768218939
0.58191274550559946022
0.18525582803680257227
0.22755669084716617645
0.21809929421925711157
0.99876514144647376980
0.95206391769308174045
0.93931688310689498422
0.25264743015500956691
2.53018763674016078369
2.59847247649075363540
2.60790650406637380954
2.79760236082460789220
1.87547333298354201858
0.89366630487675391414
2.53869111448336237657
2.26728845118715982565
2.33562908851177564173
2.33976884949417485160
3.12457070611841780661
3.05409404670521000824
3.09996740155363337266
3.00007897829210889995
3.01019342496267094944
2.92788253630487815826
0.44136398204907090204
0.43887888704423622110
0.39821752093262480221
3.05726761886998232853
0.73144895149679634017
0.68166290040915911153
0.73072614322749340765
1.05901247912833129661
1.12176045124044043710
1.07255859305679690507
0.78335882177861115849
0.48541376436695660157
2.19793736147884821719
2.13037448787750705037
2.19637270717949650845
1.36865460473872202485
1.42443013776855842423
1.43527734034178400258
1.49413191133121148191
2.93902450802198078605
1.62225761088187647729
1.68282469664690159661
1.69152873944311399335
2.40752742876758585311
2.47652062745307288694
2.48356553000579483026
3.29784920251119606505
3.19776201623628875126
3.24832749687796074056
3.24903364869250754765
3.19956782618058621637
3.29926150614029012331
3.24310396153975455391
3.24963075307014559456
1.75277873207275303180
1.01231125537493937827
0.28241696315567582642
0.28480626462321889658
0.31998655898834460487
1.18368593407186595279
1.24922071392765410280
1.19640955871964793644
2.26885310548651153439
2.66824121471730268951
2.73739655554369853974
2.74744398051947191775
2.06649099758322440934