VARIABLES = "X", "Y", "P", "U", "V", "divergence", "vorticity"
ZONE NODES=10527, ELEMENTS=20648, DATAPACKING=BLOCK,
VARLOCATION=([6]=CELLCENTERED), ZONETYPE=FETRIANGLE
0.00000000000000000000
0.06802975844538525219
0.00000000000000000000
0.13605951689077050437
0.06802975844538525219
0.00000000000000000000
0.09899845689080176425
0.19799691378160352850
0.16702821533618700256
0.15960175903817866438
0.18314400118558682440
0.09157200059279341220
0.21774360951980523127
0.24871230796522175721
0.29942770214883995816
0.24128585166721339128
0.00000000000000000000
0.09157200059279341220
0.00000000000000000000
0.29699469195600186611
0.39599247013040023147
0.34771008613962006706
0.28679707474066018502
0.34493892522228675190
0.39045014829573349013
0.15554828819950503038
0.07777414409975251519
0.16934614469254594127
0.39644794421203977119
0.44473032820281988009
0.49346818627523958423
0.44195916728548656494
0.30141159271258588515
0.24227779694908635477
0.34593087050415971540
0.22847994045604547164
0.00000000000000000000
0.00000000000000000000
0.07777414409975251519
0.54371893449805219767
0.49498107642563249353
0.59396968272086481111
0.49000295615739464239
0.54151197514714777270
0.58955576401905585016
0.47674931149335708636
0.38908045210297148575
0.43359972989454531600
0.30182006335672151298
0.30222853400085714082
0.22888841110018109948
0.53315253775620652377
0.07371488078459258186
0.15148902488434509706
0.14742976156918516373
0.59268881769027492723
0.64293956591308765169
0.69190944910531038126
0.64073260656218311571
0.22482914778502116615
0.38948892274710711359
0.58515052301964920467
0.64155374928249864208
0.69355173454594143401
0.00000000000000000000
0.00000000000000000000
0.07371488078459258186
0.37399974599438845502
0.46126013474063842779
0.44577095798791976922
0.74190428679849118598
0.69293440360626834540
0.79189912449167199071
0.69067120503894074979
0.74184804758206812636
0.79178664605882576044
0.74266919030238365274
0.28776519948574630359
0.21759748052746574754
0.29499686674330172220
0.54609975523363418759
0.65450096675992641693
0.61545019897391139985
0.36676807873683303640
0.53061057848091564004
0.13994236008475458011
0.06997118004237729005
0.14368606082696988580
0.84140175865886313034
0.89090439282605438098
0.79140692096568243663
0.21385377978525044185
0.84134551944244007071
0.79359336922244316792
0.84271082497888527563
0.89363500389894490183
0.70474091661090154659
0.74379168439691656367
0.79403163424789180436
0.35375086510544861973
0.43275374435653535254
0.41973653072515093587
0.84383331907341840861
0.00000000000000000000
0.00000000000000000000
0.06997118004237729005
0.59450483920404262328
0.57355947943417373569
0.50966521871104675245
0.89082510278520066205
0.98975108107872933338
0.94032773695239191269
0.49664800507966233578
0.94087010620406985595
0.99083581958208533091
0.89131123282045554568
0.27256143117799713771
0.20625189563137585891
0.28016331533187172065
0.94223541174051517189
0.34614898095157403679
0.70910686867256123023
0.66227853382323631504
0.75156925146022657280
0.64133317405336742745
0.06634413148504254842
0.13631531152741982460
0.13268826297008509685
0.99883794238640088992
0.89643478831714640265
0.94623647314267289588
0.20262484707404110340
1.03930397887760461728
1.08885687667647990118
0.98988063475126719659
1.03984634812928256054
0.99246128319205717538
1.04106169103362744544
1.09128756248516944893
0.48077773839620657759
0.55768921275071803301
0.54181894606726221930
1.04506275243578516942
0.33502824176750983787
0.40861579154108673695
0.39749505235702253803
0.78068188827905404814
0.82314427106671939072
0.85225690788554697708
0.92554742513597387799
0.00000000000000000000
0.00000000000000000000
0.06634413148504254842
0.70928341227733104901
0.70945995588210075677
0.64150971765813724623
0.46965699921214237866
1.13817985372853547332
1.08862695592965996738
1.18750283078059082342
0.62563945097468143253
0.25849334687700853408
0.19559080492354680159
0.26552738902750283589
1.08905215302124491750
1.13806268156844225814
1.18726848646040461510
1.13927802447278692100
0.78085843188382386693
0.32799419961701553605
1.09576244849906467849
1.14198725854844873595
1.19268695461172824501
0.12579759881477001193
0.06289879940738500597
0.12924293089242755439
1.01488416013686988393
0.93357053401120837499
1.00686105126163538692
0.19214547284588928688
0.45617195320123560265
0.52833390005635538778
0.51484885404544866727
1.23678768746899625519
1.28607254415740168696
1.18746471041694068305
1.23667051530890326205
0.67255514183291786878
0.63565032778373498079
0.58873463692549865556
1.07415275609795823897
1.17107726221062180549
1.14946756980951536598
0.86863002034434577681
0.88500313280314468756
0.79723154434262277768
1.08217586497319251393
1.18651839305124795487
1.23450885503886564898
1.28174922361732668286
1.23721808911452746393
0.31816216878143888103
0.38766302152144588300
0.37783099068586922797
0.57524959091459182403
0.94994364647000728574
0.44633992236565894762
0.00000000000000000000
0.00000000000000000000
0.06289879940738500597
0.24520802169092306699
0.18550281025284653946
0.25185068428396578666
1.28632103537041819763
1.38513923996024557184
1.33560589205882362940
0.73851737968927899658
0.76757480349645734741
0.70161256564009621961
0.82628896814980101748
1.38296686799390067257
1.28511767722715264384
1.33451970607565106874
0.31151950618839613361
1.33235804580561367771
1.23193970192210233705
1.27119244923247620704
1.21033000952099589753
1.08695816912347975602
1.15424987395980238603
1.15903217811008940608
0.63993370885175238083
0.64421708991976978087
0.57953297198260922407
1.27603310476995579492
1.32056423927275501384
1.35937925492818334483
1.02805214358080254655
1.04122012702473498713
0.96311162991393983734
0.05954621507392310331
0.12244501448130810928
0.11909243014784620662
0.18215022591938462293
1.31528585208032966491
0.43505173189356355357
0.50356066357335327321
0.49227247310125787916
0.70589594670811361965
1.10012615256741219660
1.38492699019696230422
1.43446033809838424666
1.48378143623652292149
1.43337415211521168601
0.56824478151051383001
0.30218397225746518320
0.36849545675493827757
0.35915992282400732716
0.84502779282699469476
0.90374195748033825382
0.92248078215753193110
1.26338289269918835345
1.25557333616590049985
1.20252045298770804393
1.20730275713799484194
1.42837788602639381708
1.47378890405888696158
1.37776906383810682222
0.98185045459113351463
1.41658407949353515320
0.42571619796263260316
0.00000000000000000000
0.00000000000000000000
0.05954621507392310331
0.72604293209829739997
0.78772178888664123875
0.80786877427682501907
0.17540610058748434819
0.23846389635902279225
0.23171977102712251750
0.29543984692556490845
1.33294807118585501016
1.37704147403370846803
1.39470369313923381327
1.53321603556197638696
1.48389493742383771213
1.58265063488742985243
0.86517477821717847508
1.17431282550783455676
1.18959347290557948540
1.11540679996515734729
1.48316807192263011572
1.53357535604394112916
1.58336927585135933683
1.32513851465256715656
0.58525764642956901174
0.53876505976541344545
0.61473736817466939630
1.52857908995512303818
1.27747023815915983214
1.29936714015241916442
1.22919965913125439627
1.05742425318517696553
1.07362837934561916597
0.99805458075157549303
1.44871109619465920915
1.50591592076001101752
1.53804293746113507346
0.47323934654204274919
0.41619963468302501042
0.48275590982165028642
1.24448030652899932491
0.67538914558424734125
0.75721498776277496034
0.70656120124872501265
1.46637331530018455439
0.05639541042917504965
0.11594162550309815296
0.11279082085835009930
1.13161092612559932569
0.17225529594273630840
0.64590942383914695668
1.34703541664582648885
0.28380384917288814517
0.34752392507133056387
0.33588792731865374508
0.52924849648580585271
0.88314315449430136340
0.94044915843465481942
0.95841753471177770773
1.63223452217260955877
1.68181840945778904306
1.58279992284715609330
1.63259384265457407892
1.01602295702869849237
0.40456363693034824713
1.63898710035574879385
1.69460492486013825086
1.58419691445951249520
1.61632393116063655114
1.42457032991417564816
1.45443696668911770509
1.37690205342076854578
0.00000000000000000000
0.00000000000000000000
0.05639541042917504965
0.84830943786850543376
0.77743531955861522320
0.82808910607266517090
1.48733140327520452217
1.55900102543615526329
1.57995911341117523108
1.33898926876620483206
1.26429137083589226975
1.31917820445931210926
0.90336348629014162626
1.22265977007934867338
1.14814407471248403070
1.20612662149246396837
0.16619678486361755265
0.22566125994800376175
0.21960274886888500601
0.27774533809376938942
1.51719804005014635706
0.54227588786247060693
0.59828503780623365493
0.61131242918289840915
0.65893681521581171090
1.68133736251170917697
1.78002409013598850152
1.73092124979688888331
1.39671311772766126857
1.73201989945848566776
1.78222138945918251451
1.68279533265527092567
1.73841315715966038269
1.28082451942277675272
1.08995009677211474042
1.10627181419861009282
1.03234467445519384476
0.41371733349445183325
0.37480263040655281692
0.44347834001824726347
1.72252864966931817925
1.63028579356522662636
1.70856678726472832608
1.16446579213897938310
1.65124388154024659414
0.05385315096499249804
0.11024856139416755463
0.10770630192998499608
0.79624892641384414915
0.74418841495918286455
0.72537480810395393860
0.16365452539943500798
0.92030514592554468756
0.97535919434718088006
0.99230085398258405238
0.67775042207104063685
0.51774432597732678030
0.49549183625968473699
0.56452837758011265024
0.31989993805554145512
0.26975134346221324444
0.32789393268709760010
0.46573082973588930678
1.61741451095388755199
1.53592573882150262854
1.59868681218253128051
1.04928633409059712811
1.47374893303318810212
1.49306089937725827710
1.41602508407173166560
0.36680863577499667194
1.78025468822667720659
1.82935752856577682479
1.87869096699556537011
1.83045617822737405334
1.83076585823423321209
1.87931032700928390966
1.78695762593471108026
1.35584777199659756164
1.37270627522699051326
1.29768302265316970434
1.88127185808620733809
1.80190025387776264765
1.78793839147317279448
1.55523770516557302557
0.00000000000000000000
0.00000000000000000000
0.05385315096499249804
1.66462771097653394747
1.73591247910560531054
1.74929630854189244182
1.25397024136075696532
1.18012102777968364009
1.23831500572005293037
0.81321640787202142953
0.86527691932668271413
0.88224440078486010552
1.88029109254774562388
0.93727262738372207895
1.43288358730212439518
1.68335540974788999691
0.15977192345865978695
0.21572014692810978498
0.21183754498733456395
0.62747298048496191747
0.69391097337310414517
0.64363353178702553681
0.26586874152143802341
0.58068892888217615855
1.31333825829387373929
1.12170095351258858329
1.13713009282656707377
1.06471547340457561859
0.42423805746858550547
0.41897769548151864161
0.47099119172295611513
0.37206899776206348029
1.92796885028210707169
1.87863541185231852637
1.97724673356864877327
1.97551128028018485594
1.87886633486968368523
1.92710112363787500200
1.92741080364473438280
1.19555016709366190852
1.88948597556533148811
1.80600731261732483368
1.88537891682576930208
1.81939114205361196497
0.05193965352778558836
0.10579280449277808640
0.10387930705557117672
1.63307651304393486313
1.64873851513398217428
1.57089970725562011467
0.15785842602145286340
1.44856504962291743333
1.50874236169805131524
1.52442382401884435339
0.76007577329224607077
0.82910376620508463574
0.77596313162530927698
0.95265627321884860379
1.00768449981771057722
1.02306814565283721308
0.70979833170616735138
1.69691918741753622335
1.76286008621153866827
1.77642386388118489471
1.08009911923970225445
1.97203012438558711317
1.97104935884712539895
2.06278839068496688824
0.31711710388904140734
0.26447732443818799952
0.31850852097229143123
0.59378108430833564935
0.54392863682964576189
0.53083648140348627109
0.37067758067881345641
0.48408334714911560592
1.58658116957641315281
1.32831975179393713127
1.38768776872705390524
1.40266926222711729721
1.71258118950758353449
2.01914983548257609414
1.97720964991456904514
2.02648753320111074672
2.07572833283357249812
2.02561980655687889907
1.26849287799247933961
1.28301551462420149186
1.21007280372538428281
1.46354654312298082530
1.96352445650564355617
1.95941739776608159218
2.03756293744595584627
0.00000000000000000000
0.00000000000000000000
0.05193965352778558836
1.89828377666836289883
1.90708157777139430955
1.82818894315664337569
2.05017566406546158930
0.20588024692578069108
0.15487977699067592696
0.20885889595655762752
1.84175272082628960213
0.89726618903496380142
0.91228797728506738629
0.84412555445518833164
1.34284238842565928351
0.96767806146895229968
0.67246532073686271502
0.65804942626194407040
0.72421422618108599600
0.26149867540741106309
1.09433846534299128450
1.15136943892985610383
1.16560878503314513388
0.60819697878325418294
1.66267475689597699073
1.67661099865797158515
1.60051741133840796927
0.37701741970491670086
0.43057789649468874993
0.43691773552079199439
1.22431214982867331287
0.49042318617521885038
2.11898321773068154528
2.07534466252829030708
2.17517804477639575822
1.80291119770646912635
1.72582485642022565031
1.78966753079382701053
2.12545318880498435021
2.12502184959253748175
2.07578104996007573035
2.17431536635150246539
1.47749847334536621446
1.53837575424122974255
1.55232768446361513170
2.03664153500912670225
1.96306375528722920620
2.03710223622754149631
1.97186155639026061692
0.10025830327253555663
0.05012915163626777831
0.10206880516405336667
0.15306927509915813079
1.73976109818222024472
1.61446934156079335843
2.12121462027892260238
2.13382734689842790132
2.20486630311188891440
0.79021219486647908958
0.85837461769635814424
0.80446125810764890218
1.93053904725502345485
1.85348145556810406376
1.91881031251320877118
0.73846328942225580860
0.98162661171509590918
1.03701669589898082258
1.05096524614512443208
1.43008102917908908047
1.35654827190164528616
1.41637514570310329987
1.10828701558913467196
0.25684942159885082447
0.31246785008048116872
0.30781859627192093010
1.86672512248074617958
0.57284619211493659208
0.55838741447229112147
0.62265575642589965355
0.37236816589635646224
2.17440402618522954370
2.23059885323094420073
2.28601966168549219915
0.50488196381786432099
1.23766219616276695881
1.29636556095829513779
1.30971560729238878373
1.49120435682135221711
2.22474213520722852167
2.17501727923581666957
2.27430622563806084102
2.24544298239869055678
2.22431079599478165321
2.09263941252427043693
2.09310011374268523099
2.14863729003941417162
2.17675179657565154301
0.00000000000000000000
0.00000000000000000000
0.05012915163626777831
1.36989831823573893210
2.05709677819202241267
1.98208917798170825009
2.04686915660057433541
1.81553246227321984918
1.82815372683997034997
1.75238236274897096756
1.99381791272352293376
0.19819209234369952743
0.14922519780811754897
0.20203616963474010926
1.68942961331458985086
1.70224822797120811657
1.62728795621741162414
0.87212786014866150452
0.92604121973737085760
0.93979446218967421789
0.25300534430781024264
0.99537985416739926947
0.69805226001455511486
0.68525879037570891494
0.75125675906110200852
1.17840236515634400050
1.19119594527954286711
1.12108059571233376062
0.63544922606474585347
1.95512192659849914911
1.87901656215248413773
1.94283048692676141300
1.25045577628596582542
0.41867313936980243838
0.40042854321881288238
0.35412356974536690624
1.76520097740558923327
0.49745430917333888221
0.46718602234706541054
0.53515025064413768163
1.56514390799829161693
1.57796013153296810216
1.50402058035602870234
2.33211515171968741811
2.27669434326513941969
2.37821064175388308115
2.32625843369597173904
1.89163782671923463852
2.27276683936870727010
2.37121831238591207480
2.32276226901198645791
2.30658367713136636112
2.34716035641816800350
2.40830105115084380785
1.64010417975208810937
0.44894142619607591005
2.17707540763548257345
2.10685847132230463785
2.16285634883744837254
2.11708609291375271511
0.04823810503053241328
0.09836725666680018465
0.09647621006106482655
2.24490851014203851577
2.28495071717218767304
2.21679400360580114437
0.14733415120238219087
1.38250392379326503267
1.44268663473661518104
1.45529224029414128161
2.08185467536799873045
2.00619686131151109265
2.06947572678001057156
0.88567404709095576276
0.83155363199223730764
0.81800744504994304940
0.76480294600339626676
0.24556255335945359475
0.30037580532356428220
0.29293301437520763431
2.01848830098324905080
1.00770196337298045819
1.06328735535070562079
1.07560946455628658747
2.34662588416151596249
1.13340270491791472729
1.51662618591355480291
0.64529367881587051947
0.59253509761718592408
0.58269064486606125808
0.34668077879701025834
0.54499470339526245866
1.33369822559959105845
1.26244708543956685176
1.32170691644599003212
1.85179544214189784057
1.77702183505655297857
1.83997458449093409527
2.23101306240383490120
2.43298604203158674864
2.48776144230929086021
2.38689055199739152968
2.44803124673006733403
2.37335753426925988308
2.47240884290045892513
2.42530974232717078110
2.42181357764318549997
1.96697061155943053734
1.97881929652036214762
1.90348651168016624879
1.39449523294686628105
1.72593684463322438738
1.65194848808309613375
1.71409253630221636300
0.00000000000000000000
0.00000000000000000000
0.04823810503053241328
2.20614147834381668645
2.13161912826791954956
2.19160844298964985200
0.14336519983442810866
0.19422314097574544522
0.19025418960779139077
2.14399807685590770845
0.49280691303571910744
0.48815951689809927716
0.44429403005845607977
1.91530736933112999409
0.24159360199149951254
1.78886614338756100295
0.96602320117862872095
0.89878841658543295878
0.95290883168415141391
1.02081633286745754319
0.77475073917965298076
0.71794784636706865388
0.70800005319081193988
2.03071341123993276412
2.09407978562468244377
2.10630489588136615708
0.65524147199212734449
1.58977211567818565996
1.60158409982340299571
1.52843817005877213866
0.54034730725764257286
1.14389863643898803680
1.20169187680061617662
1.21218780832168948614
0.33850095058992923924
0.39224871501173186328
0.38406888680465089969
1.27294301696064016127
2.42553343286602718365
2.44276581458121011536
2.36385826587669889420
2.04256209620086437440
2.32583592142330397579
2.25145566452939327462
2.30539331929774604646
1.66376047222831369155
2.47688716726611879437
2.57556369277835450760
2.53166256754382246186
2.52398626783940649432
0.43611420185137506067
2.46957548789395531230
2.56793266340199854980
2.52017075315122873747
2.50443007993781563414
2.54416027551703916032
2.60055910872478790452
1.40607719398587094339
1.46687420133314594395
1.47845616237215082833
2.26598869988356010907
0.09294007079256902393
0.04647003539628451196
0.09470814042681692524
0.14159713020018022123
2.15756215675744922322
2.21970555824535820122
2.23326963814689971599
2.38430086800225726762
1.54002013109777680100
0.28140021034259976584
0.23582719997519557831
0.28716661235890372783
1.98980296113069643482
2.00078662574103072203
1.92629103394146428130
2.16978726701413293654
1.87342051443041945902
1.79967867953182203422
1.86260797828615864979
2.55071247336076334378
2.49673914397098695162
2.47950676225580357581
0.86574494569114579523
0.84864928884169155143
0.91588407343488720258
0.79184639602910722456
0.33273454857362533277
0.58377679599957243983
0.53596815644883588625
0.58815594680837923747
2.57563579104277540210
1.08471954163568473639
1.09382961871508288532
1.02992640994685569211
0.65086232118332054686
1.15300871351838618573
1.34428247032879077949
1.35486671505799027848
1.28352726168983988231
2.05395837937879655044
2.11770117905929877722
2.12909746223723139735
1.73672097915896617160
1.74750511368470795581
1.67454460675405547576
1.41666143871507044238
1.93710357008572509052
2.62754917323006598195
2.67953465368177790040
2.58364804799553438031
2.62209643642552192588
2.57051901148657435670
2.66862918007268934417
2.64004688120328268042
2.61828092173734372494
0.48117075660427499617
0.47418199631045077069
0.42912544155755083519
2.06494204398913083764
2.34229685869067827397
2.35875779595805257216
2.28244963715093440726
1.81046281405756381844
0.00000000000000000000
0.00000000000000000000
0.04647003539628451196
2.29601371705247636612
0.18247273991107770819
0.13770640535182337993
0.18636346475943454948
0.23193647512683873702
2.40416780783331507365
2.46263275441226792140
2.48249969424332572743
0.52897939615501154975
1.61246906588356564427
1.62335403194372807079
1.55090509715793944956
2.25784199822620079701
2.18207344705378325500
2.24555581818655003445
0.99029600129320516366
0.92802047349217553496
0.97815960123591694231
0.36990824580815162559
0.32565422807537569572
0.37698856630640126264
1.04206281000414402449
0.78549264709967459019
0.75172024673337167755
0.82561879639541024822
2.19346973023171631922
0.67106309637093519704
0.62741994618525387395
0.69450547136900198097
1.68542957281421790228
2.57653420988922832180
2.60235594641769329982
2.52256088049945148555
1.15772919517789718569
1.21690828998120048610
1.22162877164071126401
1.28824774334935066022
2.42062874510068937184
0.42204512105930119814
2.64961895270630964916
2.69867879668783139380
2.62469563502429714674
2.02029212212275721683
1.94685631827658833792
2.01053937393189396943
0.72827787173530489362
1.42793519115239142536
1.48972991480947181131
1.50100366724679279429
2.54242782033050929158
2.67231579793281115442
2.76906790308726780125
2.72430127838452307287
2.71884854157997857271
2.66618897716726621638
2.76444529093253343888
2.71653723550261139152
2.68968314685235387884
2.72917091933084865474
2.77880718497991985316
2.13936563623772135756
2.14963381023821131777
2.07521021798962124194
1.56217884959526043254
1.89240494602818909442
1.81995502985644863614
1.88291273022930427672
0.04390333495214792520
0.09037337034843243022
0.08780666990429585039
0.13513970490768678623
2.30999524188681792936
2.37273932079239457948
2.38672084562673614272
0.22493911412568182162
0.27440284934144287821
0.26740548834028593506
2.73874299083387562348
2.32228142192646824782
2.65051737155276256885
0.57353567902564972503
0.56329456205172701022
0.51873827918108883495
0.31865686707421880808
2.08496296618048404525
1.95634853407547315562
0.90294404115804172140
0.88434449342459375831
0.94662002122562349804
0.84421834412885821131
0.61717882921133115914
1.04175639580378098792
1.09352320451471984875
1.09321679031435681217
2.27990326509664287258
2.20450036366693691292
2.26887263166142183479
1.76663656178569694610
1.69499529686471239742
1.75707083773520245096
1.15742278097753414912
2.43734805916016217253
2.49921900830279897221
2.51593832236227221699
1.30108172403406396889
1.36770069574270358714
1.38053467642741667376
0.45955808511598861266
0.41473316546207011912
0.46687004071321969167
1.44076917183710473402
2.21476853766742731722
1.82952075390694313128
2.81817441871112617235
2.86728093433498498754
2.77340779400838144397
2.76617320701377877867
2.86371723395486776909
2.81639256852106800721
2.82304405965745264240
2.81408126244370038194
2.62477784531900315557
2.64719974422031301131
2.56484971923181959141
2.45132958399450417986
0.70165737207656486696
0.75887214744093456353
0.73225164778219442585
0.51142632358385786695
1.63348736489123647075
1.64362069783874487072
1.57231218254276883250
0.00000000000000000000
0.00000000000000000000
0.04390333495214792520
0.16978187296889399316
0.12879427143659491484
0.17612730643998586455
2.79056877988351770270
2.69646236315060550126
2.74462378828567477029
0.21859368065458995023
2.58156903329129239211
2.33436562814024561874
2.39880505184051306955
2.41088925805428999638
1.70512862981222079739
0.30916624291813399328
0.36041762165206681079
0.35092699749598205150
2.82367534774522832564
2.86854351051053679811
2.78361115359918409595
2.34539626157546621243
0.96043418003080738288
1.00411016009838904850
1.01792431890357315538
1.05557055460896487276
2.16709576763849565140
2.09369394488062621207
2.15836478893835348458
2.02827951583054222340
2.03626690953832678588
1.96433592778325794015
0.40524254130598535983
0.65960384086991052932
0.64814458536888586160
0.60571957371030649142
0.82168771715418253976
0.80359018212692856498
0.86231587915611207507
2.71888426205191535701
1.17988037963797731678
1.13813198763524336954
1.11567438897480020188
0.69019811657554019924
0.77696968246818842729
1.24585903021379951205
1.32531198260715221693
1.27008928878688776010
2.82955614519702702836
1.45224137007533515842
1.51247586548502299664
1.52394806372325342103
2.29933311551153618524
2.22448346287487375150
2.28961819030408975095
2.86540372057188985622
2.96173953805651146709
2.91451023619574822732
1.58378438078099925690
2.91272838600568961809
1.90798343541085735353
1.83730999859827726084
1.90019419071952322398
2.10168133858841121864
2.86260160938753127624
2.96075792784252955769
2.91223758089869866339
2.86892970235646771471
2.91316657703400050394
2.95905221973301602034
2.46477098227928603791
2.52937972064705363096
2.54282111893183548901
1.20411063821106556482
0.55638826485805870092
0.54948196766439039163
0.50452002639018944663
2.23321444157501591832
2.91379786512177663127
0.03921720742516638519
0.08312054237731431039
0.07843441485033277039
0.12410814390961338871
1.07802815326940826246
1.97212517247459206970
2.47685518849306252065
0.25586457887697633407
0.24432366941366667756
0.20705277119128034924
2.59623626339582402878
2.66186697432484464798
2.67653420442937584056
0.29762533345482433678
1.77507049411207162848
1.78350442643844608881
1.71356256213859547977
0.59881327651663807110
2.35610896911369449569
2.42160196559251783555
2.43231467313074611880
0.91745192878288261973
0.97494206765564828121
0.93195981640772340704
0.87682376678095297340
0.40136032457746334545
0.45567586838746665379
0.45179365165894463940
2.80228702196561263449
2.81400526404770756628
2.73060250413401028879
2.36582389432114137406
1.84574393092465172117
1.39475251407830125316
1.40897035172918561052
1.33952982025803679633
2.60967766168060588683
1.46645920772621951578
0.73643970911664913270
0.69229214724276744164
0.73434567844942177928
0.77906371313541589174
2.94739753490027878158
2.86898315739189824214
2.90797052270540756780
0.50063780966166748776
3.00944351634518669769
3.05714749463386192829
2.96221421448442345792
3.01025173264462164724
2.96124058059379979824
3.05876392723273227148
3.00809985718343897432
3.00976092753763069254
1.65327305453826234327
1.66292541123777959378
1.59343673748051650740
2.74526973423854148137
2.17342207149565780355
2.17974837535282039980
2.10800764244557381488
1.03346979047788467554
1.09357362484372000466
1.04901526205219641774
1.72321491883811273027
0.00000000000000000000
0.00000000000000000000
0.03921720742516638519
2.31527997694913523219
2.24118787229381544179
2.30730654623033570871
0.11688177370626115503
0.16255550276554175948
0.15532913256218952580
0.19982640098792808780
2.48849149101942890283
2.55445742145820187119
2.56609372398456780928
1.17186923834784750831
1.15500061299154532790
1.22097926356736774522
2.95258813821778698383
2.99784249282902637290
3.03663276592503672546
2.04710457749596708155
1.97754400645341221754
2.04168574351714671167
0.99048753922995991239
2.49920419855765718609
0.29506758505741442766
0.26969562723554052486
0.32299729127669823958
0.63877810282907054873
0.59413003524673047018
0.64346134409897826067
2.95483260277551851303
2.88441893341161303965
2.87270069132951810786
0.35843326081179627263
0.40886658789327756658
0.36593952412761043824
2.99201515041265775352
2.95111506883789864730
2.24751417615097803804
0.88672410618118047143
0.84148839595463753582
0.83158805655441003779
0.68760890597285984072
2.11342647642439374067
1.11044225020002196302
2.37530867221716146531
2.44179945102676665414
2.45128422892278718948
0.78896405253564338977
1.91449156853692969982
1.92099970166300204610
1.85225206405072406746
1.28511832637987910566
1.35455885785102791985
1.30014736397287045122
1.47716530418468972030
1.53465416018172362556
1.54536025664019405212
0.33050355459251246071
2.68884490417382959748
2.70115560391828335440
2.62198836142505964375
1.60414283393898671193
0.53937600478717329100
0.49558482822305893745
0.54442898622578184131
2.38328210293596143288
3.05883411580176778344
3.15592869354702409979
3.10653809409044301404
3.10734631038987796359
1.23600830116035886874
3.05881902880951628276
3.15688012977650256374
3.10782202850461741761
3.05285700405749249597
3.10190464150791544995
3.14666178838196852752
2.82602213918706546281
2.83803901432642380342
2.75728660937789982199
1.98405213957948456382
2.63362466395142558184
0.03512226374902183840
0.07433947117418822359
0.07024452749804367679
3.09164727715350284853
1.79188980353412885549
1.80027518062981184421
1.73160029593379571899
0.11278683003011660824
0.58907705380812191986
0.18977043480829741684
0.23426770323403600660
0.22421173705440533563
1.00324262811982078958
0.95746999418744505039
0.94471490529758428423
0.25963966105590985389
2.50976550241713480816
2.57665502784404587544
2.58721633170352349751
2.76959730912235357891
1.86063744114640705618
0.89947919507104123760
2.51925028031315534349
2.25236373187536020879
2.32012953267351740294
2.32497908839789957369
3.08597447464928054117
3.01668600477477966137
3.06130362028715863332
2.96568190588059721335
2.97653120898567635777
2.89526823651669218407
0.44949181071567428924
0.44718996977240393909
0.40656474695000721642
3.02040353871239952710
0.73851620857676969489
0.68864715570292012181
0.73747795884670941380
1.06255015827163612485
1.12397714641946144809
1.07608505449107560992
0.79000230226570367087
0.49328298727978858729
2.18283581620801125922
2.11497019685198939243
2.18129209578041560746
1.36571045638007970702
1.42012195025823739769
1.43127354878728896281
1.48831690271374150747
2.90728511165605008060
1.61330808782871004681
1.67209066512750270661
1.68125591901722581945
2.39125208468863004185
2.45925421067545579845
2.46722419242812440743
3.25334540551314077561
3.15524645007350112991
3.20463704953008221565
3.20506080248255464937
3.15647841932540895726
3.25419291141808519896
3.20000359694755465156
3.20553652059729365931
1.74076554982351883183
1.01677752433926027464
0.28999899996026262672
0.29253329250883852719
0.32796926204393650472
1.18474971417897112502
1.24888877699148270750
1.19763019001009496378
2.25390745230295541646
2.64486316908394014646
2.71239410905079791902
2.72363261418331248365
2.05039918875193150072