VARIABLES = "X", "Y", "P", "U", "V", "divergence", "vorticity"
ZONE NODES=10527, ELEMENTS=20648, DATAPACKING=BLOCK,
VARLOCATION=([6]=CELLCENTERED), ZONETYPE=FETRIANGLE
0.00000000000000000000
0.06634494571156736298
0.00000000000000000000
0.13268989142313472596
0.06634494571156736298
0.00000000000000000000
0.09654861290001140461
0.19309722580002280923
0.16289355861157878147
0.15564457363399814005
0.17859925584486158190
0.08929962792243079095
0.21235347269462928610
0.24255713988307334161
0.29201705396612387400
0.23530815490549272795
0.00000000000000000000
0.08929962792243079095
0.00000000000000000000
0.28964864341802737391
0.38620006103603193859
0.33910855750107793405
0.27969237032665178466
0.33640126938728293071
0.38078548480844198743
0.15166979346803988182
0.07583489673401994091
0.16513452465645073186
0.38664093037588070922
0.43373243391083471376
0.48126480678563754445
0.43102514579703976594
0.29393660184579639694
0.23626792884532898942
0.33736104332711919218
0.22280319765691813938
0.00000000000000000000
0.00000000000000000000
0.07583489673401994091
0.53027454673664320417
0.48274217386184048451
0.57928428668764897491
0.47788362068591605514
0.52812328167451383365
0.57498175656339012285
0.46496791954132843383
0.37945226069356241538
0.42287670217488521063
0.29432892142763061871
0.29472124100946484049
0.22319551723875236116
0.51997483805235922283
0.07186241329198134187
0.14769731002600128278
0.14372482658396268373
0.57803125170882019290
0.62704099165982596364
0.67479769663200295238
0.62488972659769648210
0.21922303379671376211
0.37984458027539663716
0.57070538620270516716
0.62571230471373606719
0.67644285286408190050
0.00000000000000000000
0.00000000000000000000
0.07186241329198134187
0.36474408728824281312
0.44986742655417466530
0.43476693356702084126
0.72355202638551574523
0.67579532141333875650
0.77230635613902853809
0.67359597819265348839
0.72350394822695984764
0.77221019982191685394
0.72432652634299943273
0.28058970743029343353
0.21215726700712805863
0.28765547421987913701
0.53263919840516749105
0.63837666506654433540
0.60031047726900665928
0.35767832049865710964
0.51753870541801372251
0.13638194634970121633
0.06819097317485060816
0.14005338646683196391
0.82057688469584177948
0.86884741325265502088
0.77182255494232898663
0.20848582688999733881
0.82052880653728599292
0.77401426035690223948
0.82189793383581977171
0.87158566784972268948
0.68741815116928628449
0.72548433896682396060
0.77452582506956590969
0.34498367118102424289
0.42207228424938791900
0.40937763493175505225
0.82305574645964429958
0.00000000000000000000
0.00000000000000000000
0.06819097317485060816
0.57990441028582684346
0.55949834330264713866
0.49713263843483401772
0.86876440122635467667
0.96522244631368070422
0.91703492978316791806
0.48443798911720109546
0.91757624761005063263
0.96630508196744635541
0.86925764089468160467
0.26571768423242425605
0.20104981529106275007
0.27315369583135884479
0.91894537490858452244
0.33754765958208965415
0.69175090275585859878
0.64603069001243262903
0.73313836391271225423
0.62562462302925281321
0.06462404881747747798
0.13281502199232808614
0.12924809763495495596
0.97431989407048757990
0.87442285957002674479
0.92295278096010513469
0.19748289093368959213
1.01353284982273406101
1.06184325333178741779
0.96534533329222127485
1.01407416764961677558
0.96795267487167935272
1.01531238193054118568
1.06431968189363601596
0.46898316770527204156
0.54404352189071802925
0.52858870047878903087
1.01931978798206168690
0.32669686374165668452
0.39852683909132208262
0.38767604325088911299
0.76160825337447524142
0.80299571453132889687
0.83146560399309199507
0.90289274903178973197
0.00000000000000000000
0.00000000000000000000
0.06462404881747747798
0.69198497772662115324
0.69221905269738359667
0.62585869800001536767
0.45813237186483907193
1.10991989277737834740
1.06160948926832476857
1.15799653222296905497
0.61040387658808636928
0.25193047504694232597
0.19058928634094862709
0.25882407963968329101
1.06205477493120081789
1.10982386061337123806
1.15780446789495528037
1.11106207489429564816
0.76184232834523779587
0.31980325914891571948
1.06881876304100487118
1.11381865695257897819
1.16331763201152194043
0.12244700567144886638
0.06122350283572443319
0.12584755165320191117
0.99020815122825456278
0.91083687761067322342
0.98226402264937107134
0.18718874035919558230
0.44500242105415571681
0.51545874966810567575
0.50232879885742232062
1.20603324812487677775
1.25406996402678427849
1.15795660867928584814
1.20593721596086966841
0.65625033681130195973
0.62028162092522032278
0.57443516070200462131
1.04784334705882309358
1.14234221602934038486
1.12136680004715860726
0.84754694036005195912
0.86362827672701203419
0.77792366471219787094
1.05578747563770658502
1.15715408537852493254
1.20389647837918456474
1.24998848886341407116
1.20665306043746811682
0.31020330549811070409
0.37807608960008409760
0.36847613594927908220
0.56130520989132137721
0.92691821397763329848
0.43540246740335070141
0.00000000000000000000
0.00000000000000000000
0.06122350283572443319
0.23888316502454881585
0.18066508534799885499
0.24540682003574557091
1.25429885911377558827
1.35060118600458212157
1.30233557501568331105
0.72068563595654189236
0.74915221921570029906
0.68471692007046036643
0.80639024797135616662
1.34853132354651794600
1.25316789572073661319
1.30130064378665100122
0.30367965048691392127
1.29925990620496589756
1.20166539705850783371
1.24001316210549372698
1.18068998107632605610
1.06057777402231412367
1.12615709843176636795
1.13094739681637390660
0.62454839538262829635
0.62881516984003615889
0.56557198434872923976
1.24457153108087337223
1.28790695950681932658
1.32582543015022480404
1.00319919423053960372
1.01619023723282486671
0.93990925697991845045
0.05790390880529903278
0.11912741164102347291
0.11580781761059806556
0.17734549131757343376
1.28291929612785926551
0.42442125763150262419
0.49134758908557424339
0.48036637931372616617
0.68898369452786822897
1.07356881702459938666
1.35039216662355032739
1.39865777761244913791
1.44671436922031637629
1.39762284638341727216
0.55459077457688121804
0.29456086653338764414
0.35935735199575274956
0.35023856804222641692
0.82482328399887439030
0.88206131275453025786
0.90049434878204848154
1.23248674837853289254
1.22496033465157205811
1.17316356734936544370
1.17795386573397298235
1.39283823211226209793
1.43714514067800647190
1.34356681477071027153
0.95834229300743667412
1.38148528541411552695
0.41530247367797629154
0.00000000000000000000
0.00000000000000000000
0.05790390880529903278
0.70879427734991629073
0.76896280203774836082
0.78877338485979631155
0.17071630999895393010
0.23225398370592931219
0.22562480238730978077
0.28793168521476808497
1.30028824222254413279
1.34319437624490967131
1.36056332233959453859
1.49486569254624734882
1.44680910093838033248
1.54301701587217832135
0.84463386682092234103
1.14602543265423362229
1.16110346849209333797
1.08864685286245910234
1.44615157522428927628
1.49524309806118838040
1.54377182690206060656
1.29276182849558329835
0.57136831323001024963
0.52586734627186815239
0.60009174153502320426
1.49045848379003365025
1.24644302028834208507
1.26792570592511211203
1.19943655137074300931
1.03218860136653711734
1.04818696550024936798
0.97434065714114892476
1.41291211794080417974
1.46857197320469490265
1.49999880573138333340
0.46189939995366458003
0.40606898399794549848
0.47113288963369537310
1.21451458720860272500
0.65940300153423492269
0.73938210904411505453
0.68999083322843368649
1.43028106403548882497
0.05477951295192665798
0.11268342175722569076
0.10955902590385331596
1.10464521699617135297
0.16759191414558155531
0.63067957322922196806
1.31424451413235332531
0.27656803852793560017
0.33887492135539387661
0.32751127466856139181
0.51663385659183735932
0.86236198824013432507
0.91822247020126046557
0.93595059162047244961
1.59131108946793808911
1.63960516306369785688
1.54315976614200711658
1.59168849498287912070
0.99206877856036090879
0.39470533731111301368
1.59801938235686646905
1.65226693781167233155
1.54470603924483951275
1.57613287177152772145
1.38990176513536334291
1.41924020793113214722
1.34358295692812212963
0.00000000000000000000
0.00000000000000000000
0.05477951295192665798
0.82863704327931408944
0.75931393825387383245
0.80870521406955520050
1.45090363017083667785
1.52062137186673096423
1.54124393800207859506
1.30700369214909684068
1.23405358032059497830
1.28746469903710458738
0.88229381744989332503
1.19382711097544103040
1.12100703823784519919
1.17746528973376718419
0.16164226477811183269
0.21967515301984008591
0.21372550365237036329
0.27061838916046587755
1.48024207296660526012
0.52948075956895168659
0.58421521620712446587
0.59706211918423868212
0.64352647620633618430
1.63911973806493804773
1.73522246025769755207
1.68741381166069759345
1.36312195004011460497
1.68850979791367095117
1.73741443276364382342
1.64059312983285221499
1.69484068528765807748
1.25041540156226904656
1.06435440028665273537
1.08052183507305610277
1.00823621334676438721
0.40379493159855389672
0.36565310313355764427
0.43284716577610926613
1.67982813127973584777
1.58991346850555959058
1.66604753454570397864
1.13717447302424856659
1.61053603464090722142
0.05226336074005902277
0.10704287369198567381
0.10452672148011804554
0.77787620851194549942
0.72711537374457690941
0.70855310348650535346
0.15912611256624420442
0.89907169380253981750
0.95272846797311905309
0.96950634432576565658
0.66208874646440785128
0.50570418820055407227
0.48380179407710932615
0.55138315369239632169
0.31195361661583037582
0.26283956013410036956
0.31973244564219588382
0.45474955989955401225
1.57829108950555596635
1.49876564871834405679
1.55976751375381716969
1.02501408969941087967
1.43835397574444368018
1.45746774355775543519
1.38223571785342613794
0.35787427410719213627
1.73544292635303110117
1.78325157495003083774
1.83128068964236412342
1.78434756120300397342
1.78472508243170446818
1.83203573209976533498
1.74215133495571894429
1.32373699243143683191
1.34047029271377704518
1.26714870184460903779
1.83417688144146606710
1.75700250636060095744
1.74322190962656931035
1.51787941653165558975
0.00000000000000000000
0.00000000000000000000
0.05226336074005902277
1.62382251453921799822
1.69311461117804662457
1.70640109107635740138
1.22496889426636257348
1.15274536466970944915
1.20939800262090191296
0.79468259084875669807
0.84544342561612517706
0.86224980795293637570
1.83310630677061570104
0.91587807613935101614
1.39896901813576635121
1.64234609029095679489
0.15534380088711174928
0.20994319197323790815
0.20616088029410545301
0.61304674148045923410
0.67807336876062840325
0.62903136377667978607
0.25905724845496791442
0.56736777598861687366
1.28271959349006969830
1.09587829066223063634
1.11123474625140539196
1.04037054528858563529
0.41433398437745361242
0.40906445798800372682
0.46001908628900384235
0.36314380049664196637
1.87924008576091416955
1.83121097106858110592
1.92719948187946443774
1.92555709528856544566
1.83148576402610463454
1.87841889246546478454
1.87879641369416550134
1.16810182025888398272
1.84258562402865777585
1.76120687765419692283
1.83838125273506181045
1.77449335755250769964
0.05039825884644984905
0.10266161958650887875
0.10079651769289969809
1.59390255878854736338
1.60951402807153876040
1.53349088581464698677
0.15347869899350258249
1.41461583424070491688
1.47311455966269422291
1.48876137576763301062
0.74287628379562686831
0.81044350089980654595
0.75863719384667671619
0.93119127001209522909
0.98481953819850986953
1.00013273207125408248
0.69383427881167825113
1.65588585255485476466
1.71994085334025537115
1.73348061560415334093
1.05568373916132962620
1.92240821176915233082
1.92133763709830196476
2.01063954209683837249
0.30947845543043056571
0.25781966786226800936
0.31071603602313047077
0.58039283856805334860
0.53175431335942691113
0.51872925077999054722
0.36190621990394211682
0.47304414886844026178
1.54913770191958599654
1.29769526282720981669
1.35544596205091716357
1.37042163138805705991
1.67149732183784616169
1.96809831869270190907
1.92715705595658248761
1.97511645207513275579
2.02303342227080085181
1.97429525877968314873
1.23950564341655744549
1.25404239256675231751
1.18263856940907885473
1.42959150357784503527
1.91452001015930139971
1.91031563886570565636
1.98645439628994524561
0.00000000000000000000
0.00000000000000000000
0.05039825884644984905
1.85144072323076480657
1.86029582243287161525
1.78334845675461450831
1.99854696919339192007
0.20052026222651828102
0.15065838995970898262
0.20334057126031185314
1.79688821901851247809
0.87721049216286517414
0.89217117637279397258
0.82540418510973534438
1.31223201197740468871
0.94615195422202402753
0.65774435639789707864
0.64338786008728843235
0.70819077512228689741
0.25499935882847440949
1.06994771462782933824
1.12549872171790488196
1.13976269718440459400
0.59474933487866199489
1.62352153237102525551
1.63752903667051175063
1.56314520621907249165
0.36839750972284845965
0.42082527419635995525
0.42731656401526635358
1.19690254487557856677
0.47953543868734660460
2.06522675787963638783
2.02268553447549948032
2.11981397366243395908
1.76010514964191422393
1.68480958885672649217
1.74679288262303389345
2.07142369796661718340
2.07099153567346050409
2.02307456547779196399
2.11894964907611971228
1.44362865874816725942
1.50279853093795523478
1.51683568610827745893
1.98603221040654531748
1.91430891721760154667
1.98624330334824517053
1.92316401641970857739
0.09738354275854570197
0.04869177137927285098
0.09909003022572270003
0.14895190249253198456
1.69881709315621298728
1.57718236138939449376
2.06776542776736071971
2.07985800067080717213
2.14907645924477597177
0.77285838472465973048
0.83962537598771835867
0.78707957560264263375
1.88389777536552838200
1.80868919548484097248
1.87209679889920010964
0.72241196600026991170
0.96012958943019988123
1.01411036727943004720
1.02808800248760578988
1.39804436567116741053
1.32604337911895986402
1.38423299852961223522
1.08392534983600530296
0.25068352316271003133
0.30516261976466618755
0.30084678409890180939
1.82200146250372130297
0.56067818246544554039
0.54621624791243617025
0.60921126943167136503
0.36408167405708408149
2.11917868041939572166
2.17376589620219373700
2.22771781874195307083
0.49399737324035597474
1.21038026967126954858
1.26752011736244352136
1.28099784215813450317
1.45744002588972243473
2.16801051367821440152
2.11962023798239762584
2.21620705369399484397
2.18839713899336452130
2.16757835138505727812
2.04038303388464736798
2.04059412682634722103
2.09473385736274941848
2.12190515830376291717
0.00000000000000000000
0.00000000000000000000
0.04869177137927285098
1.33952110391465106787
2.00659123422291330030
1.93344352832789256880
1.99631172231472930889
1.77289482579855883770
1.78568450195520322943
1.71160676931285760105
1.94524450479422084115
0.19337000670148143944
0.14537677473001356376
0.19694513446399986023
1.65052506273165100481
1.66352108879279048104
1.59017838745053396998
0.85341067023506778089
0.90595647062014350581
0.91974176486749292803
0.24710839540019163829
0.97391488367754930344
0.68344669649412381762
0.67059552644601039262
0.73526313604838322568
1.15270499689914407426
1.16564729661388355453
1.09686764955074478323
0.62206243947978467901
1.90879380524264385954
1.83444947744227904174
1.89634579030408612077
1.22332256938600902885
0.40982036370108321233
0.39232416338690012658
0.34658547374290094023
1.72460279537399685523
0.48730906731843887103
0.45731281566685261231
0.52399362489194223347
1.52984836101355137217
1.54286103591882550745
1.47045270079499657001
2.27248421798862709764
2.21853229544886776381
2.31725061723530112445
2.26672883546464820625
1.84723915359892343346
2.21470954351668147808
2.31046943795724324389
2.26333824582561904393
2.24793620115197478881
2.28725688090056333834
2.34679594305917360586
1.60319106235580788322
0.43981661535266947105
2.12285499520442400012
2.05444360280548465880
2.10879442628358670930
2.06472311471366865021
0.04695188280512559847
0.09564365418439844946
0.09390376561025119695
2.18819057722925380816
2.22730469521373164454
2.16101927628824075356
0.14363688615586631125
1.35235641580419985175
1.41087967756071641645
1.42371498945026520033
2.03157471069751816017
1.95773624303152327109
2.01908297246021550819
0.86702355885402138114
0.81430535284054972323
0.80069246422159623400
0.74887602466733671491
0.24014324872071945993
0.29388163741942963103
0.28691649073995745267
1.97018425797008100986
0.98639406130227680336
1.04056718011233328980
1.05304635773706056767
2.28705031913645262520
1.10934682717547206110
1.48328801268454535389
0.63209103393769017210
0.58073537138125663759
0.57070677692335114450
0.33962032706342881738
0.53402221934984772655
1.30553648940596223049
1.23559189300992278149
1.29326716578204825581
1.80984994240312757618
1.73668551559795902861
1.79776722217916540281
2.17507984520907804438
2.37051629505242722473
2.42378197286955332501
2.32574989580575319792
2.38528895796436346544
2.31252814691430641503
2.40884924013461798609
2.36304992868495933322
2.35965933904593061499
1.92089963613052949754
1.93300546701841513553
1.85934498448680907146
1.36462573942811360439
1.68776384856230121656
1.61531244224056336201
1.67564246867754595982
0.00000000000000000000
0.00000000000000000000
0.04695188280512559847
2.15188442001819524307
2.07923782712055427169
2.13736970761130962160
0.13995926680781950457
0.18969238735343463276
0.18601476800538782608
2.09172956535785647958
0.48314589605016516893
0.47898272478189146684
0.43565344408439576895
1.87142770471077124483
0.23646562937267262550
1.74880689548271428535
0.94623791060868234215
0.88027163172461597718
0.93298983773808763509
0.99964213417287139940
0.75910473226732599894
0.70390411169410227465
0.69367540409411310165
1.98264633655506683496
2.04403678928250398528
2.05649886786748981038
0.64231974153767945612
1.55498956030442725407
1.56711808469002900068
1.49541653707014710051
0.52985904808157402446
1.12018461850511696909
1.17648508794352846252
1.18732287927317314846
0.33203866841439011459
0.38474250473786142379
0.37716084608882277651
1.24642968433956768948
2.36377326195014703103
2.38075058084112001211
2.30402763802742605037
1.99475216744295247295
2.26766088088697248537
2.19525793804569824275
2.24748278805035184291
1.62744096662616510862
2.41317054005996523003
2.50909046288462933560
2.46643621787709133031
2.45896985150962343880
0.42807178543535712167
2.40610906311138439406
2.50174868826552554424
2.45529896420007176516
2.44012388250487033403
2.47861689741006019361
2.53345182195056706220
1.37659365546718204243
1.43568290548933363837
1.44765082152840207641
2.20977265045258386422
0.09063368245244227128
0.04531684122622113564
0.09226872403134672718
0.13832422522891504868
2.10545667754022458595
2.16561153220056290536
2.17933864438293101173
2.32420573086404624874
1.50738445310921553855
0.27620884790514971252
0.23111180795526875542
0.28156266932255358260
1.94432653358473217509
1.95564760015104943669
1.88274877127708850644
2.11791875612521041106
1.83215336532430472793
1.75995860694330286123
1.82100165386371615206
2.48528110811660019053
2.43301584447886032336
2.41603852558788689819
0.84866788498604395219
0.83148661891329678220
0.89745289779736314717
0.77628599834007316893
0.32668484699698624452
0.57310938596962868186
0.52604605537576010210
0.57692237867544271523
2.50936646503358362637
1.06249428432639159148
1.07194221091572261528
1.00909006076220242321
0.63850674883186542274
1.12963254509444777085
1.31660441404483385952
1.32767233868370526650
1.25749760897843909646
2.00649797010560204669
2.06824467053013938411
2.07999047319278895785
1.69892205483044511638
1.71008026109858879416
1.63859917289430878640
1.38766158010605367146
1.89390048273767708231
2.55958589259395541404
2.61008132230328149248
2.51693164758641740875
2.55435234832605484456
2.50423173695104894776
2.59961423376747990943
2.57176657212692427734
2.55068146101650272684
0.47256027134468764350
0.46613781790748382017
0.42164933199815329834
2.01781903667191908625
2.28412783087263537851
2.30059478085829782756
2.22623960043824631327
1.77111681321144676104
0.00000000000000000000
0.00000000000000000000
0.04531684122622113564
2.23996671262061441965
0.17870732262509919641
0.13467050253877071997
0.18236104531524349737
0.22745808526512445447
2.34386148316693176952
2.40040633314400597698
2.42006208544689149775
0.51962360193855627877
1.57845825727506494651
1.58979842986010089234
1.51872462569425148438
2.20459574251745626938
2.13054730519247303988
2.19196719345019364056
0.97094983031083526015
0.90980885764843955066
0.95859387045975874564
0.36387748894854793358
0.32004316842684882305
0.37051916751868535504
1.02144602061327893772
0.77082248010130771654
0.73736329589770499560
0.80974518254367588987
2.14229310785512261361
0.65896247787008177532
0.61603593191985517308
0.68143329478209202499
1.64993934547934495427
2.51053343253404115387
2.53578575695148167313
2.45826816889630084262
1.13498520037787109516
1.19267553455659647277
1.19802818984001979707
1.26285026426186242077
2.36032843315259466266
0.41500765342801587687
2.58113858174873822549
2.62882534154690983286
2.55705322483175478965
1.97591169052859072508
1.90403252792644783753
1.96577964533982019191
0.71489247898569474593
1.39946734202243439071
1.45945658344478257362
1.47126234536116329288
2.47792392119918680748
2.60311965455923388646
2.69714884623383888140
2.65361508426856040899
2.64838154000065939542
2.59727724807786586325
2.69280580789020618226
2.64621002082884304585
2.61994324601472650116
2.65825799619108371630
2.70643467007888594011
2.09066484255575213425
2.10133921191871531065
2.02849340603488226265
1.53053038761063220363
1.85191400297513641959
1.78099713203686249585
1.84203368414972068479
0.04299513391456469963
0.08831197514078584221
0.08599026782912939926
0.13234879522711429090
2.25421880980942290762
2.31484687804710631553
2.32909897523591480351
0.22076553765979184396
0.26951630029981710202
0.26282375269448449151
2.66763000581289766444
2.26684735887668553644
2.58230554924919575299
0.56338592614012972248
0.55366246631063076311
0.50990014210905731940
0.31335062082151621254
2.03862545122365279582
1.91391284675186357234
0.88580673547030763793
0.86723731022817585057
0.92837828289057144904
0.82831460778580767723
0.60631247209035632473
1.02154881624836657572
1.07204500655081025329
1.07214780218589789129
2.22757956747963881128
2.15378502033621366252
2.21608765499854776237
1.73011077933447565691
1.65995460459728816360
1.72009552021653222553
1.13508799601295873316
2.37714274383952073322
2.43687639613381801240
2.45369070682074408296
1.27605857057870242244
1.34088064500054504613
1.35408895131738482576
0.45196259880222988681
0.40792004387538893795
0.45905020835485688124
1.41267564833927394830
2.16445938969917683892
1.79101239115480614927
2.74478231599175970246
2.79241578574968052351
2.70124855402648123004
2.69444395845692330482
2.78927368314636670021
2.74321126469010279081
2.74942522791428345386
2.74103974551828644124
2.55794911640333655356
2.58011247585519098990
2.50008728065104124383
2.39139484102832966528
0.68889531865709052738
0.74482531977270349799
0.71882815944409939046
0.50281253255643032496
1.60042716221798420051
1.61105589457586728663
1.54115911996851528976
0.00000000000000000000
0.00000000000000000000
0.04299513391456469963
0.16653570945733084385
0.12626298864323012849
0.17262151604121500625
2.71825351261418912685
2.62701963478283539999
2.67353942708054947985
0.21467973107590765380
2.51690159133796775848
2.27943394033052459946
2.34168555668975386652
2.35427213814359337363
1.67058333695517147177
0.30390978749406538650
0.35443665562109710754
0.34499582229364628150
2.74993716224782636104
2.79343965441676678196
2.71113249798183808537
2.29092585281161609245
0.94215785111293659515
0.98472939853320040626
0.99850896675556555238
1.03532838447073172183
2.11959729154243436966
2.04775449103551254737
2.11046825173057506220
1.98426792146690988972
1.99262415240522905435
1.92226907769018273697
0.39847921054793811191
0.64769950917503871235
0.63643654047999564938
0.59504950339531315073
0.80619380274741880843
0.78850814142436331800
0.84600026910886327869
2.64918299423468983633
1.15718937653706577251
1.11635056323411174795
1.09424918271000493064
0.67763234996204757543
0.76251098109575909945
1.22183393921538607785
1.29986431995406870321
1.24563968859075258067
2.75584658351547773236
1.42434970118867942901
1.48293639821056855155
1.49461045105997403226
2.24793721541078861392
2.17463821366475196228
2.23775839144521349056
2.79077491006938593898
2.88440097390493255247
2.83840837982730676003
1.55283317281792054843
2.83683732852564940430
1.86816143641346243953
1.79913610787396915924
1.86003771969429942956
2.05611072197383171201
2.78825211981549569984
2.88369843174078521741
2.83648605744357595881
2.79385164245711914432
2.83684220029251665807
2.88126861483535234854
2.40529760842895612427
2.46759347422137054195
2.48149624162199700095
1.18099512591243227533
0.54668637287448862416
0.53971027943834659624
0.49583643912028824152
2.18376725347661171384
2.83735413462605956525
0.03854137633596187162
0.08153651025052657819
0.07708275267192374325
0.12180923106462729355
1.05742976499483853914
1.93039279440934574694
2.41788418988279518729
0.25129620745900715928
0.23976866222352977154
0.20315218584043032157
2.53186948660315103155
2.59508037112037470706
2.61004826638555798013
0.29238224225858799876
1.73882675085287585759
1.74754272237127583622
1.67929930847357145041
0.58807340995917112281
2.30224697402519318246
2.36559325935717046363
2.37691438057074755363
0.89980975913729577265
0.95616087477992461885
0.91381278280428379635
0.86000329277585130239
0.39434392898885750611
0.44782731724314928101
0.44369203568406873073
2.73013681040796729604
2.74202010820174502115
2.66106629202846800553
2.31242579799076786173
1.80785207939236913788
1.36773395049025747738
1.38137894966313035106
1.31350931912694157688
2.54577225400377749054
1.43799470036155208064
0.72227490038394004390
0.67935572043196779113
0.72055152991401971718
0.76423435156567942617
2.86985625845171865578
2.79405488553295366927
2.83164795643424271887
0.49170115756120769124
2.93059562810111717823
2.97679028229730224808
2.88460303402349138580
2.93167662814522067549
2.88411298276593752732
2.97895228238550835442
2.92902944856632707626
2.93132535706314678592
1.62054636139844854270
1.63003682822102957672
1.56232363964050180449
2.67603418729365127859
2.12627807628428833198
2.13295886102614273838
2.06279150671568611841
1.01334402230083986396
1.07226482054011307277
1.02817907784611439759
1.68878977529615270647
0.00000000000000000000
0.00000000000000000000
0.03854137633596187162
2.26459630468421435623
2.19209679811332414090
2.25626676004750148508
0.11458245724909213448
0.15930893564179568478
0.15208216182626052571
0.19592541202489516250
2.43027280499991027440
2.49388485673911208806
2.50627347185622717518
1.14819934745405527465
1.13227495534408362232
1.19691951802240392766
2.87481656929463724737
2.91873104950393003065
2.95619348417250815686
2.00382955627308989577
1.93599549634327616765
1.99822685433915947506
0.97099593032519915248
2.44159392621348736441
0.28952828947309589003
0.26464847584831285854
0.31726205588337108576
0.62636785883274548326
0.58303906913554603975
0.63140219965637056632
2.87741565434641488608
2.80971788127407995361
2.79783458348030222851
0.35198521178994046643
0.40133331848515163554
0.35897460128623459585
2.91302487131211318427
2.87363595639906677093
2.19877758285517854731
0.86911026189100037964
0.82440774097771696294
0.81530077186256788568
0.67432137960834270807
2.06839420864961631708
1.08818921265008494714
2.32238632921792209629
2.38687491179790178819
2.39683544302505602275
0.77334132068082850342
1.87462722111426161042
1.88109300581506078132
1.81431786409316830877
1.25948141514964651044
1.32735104568583528462
1.27332314170854044022
1.44776363226324056299
1.50437938296166251462
1.51414831486335077493
0.32425144537966521519
2.62312465131401317819
2.63620103624246882035
2.55884863893223268860
1.57209257154219006480
0.52884803026168558659
0.48627003297287718642
0.53427915485001609142
2.33071587385463541153
2.97879894725171467940
3.07319692059849725041
3.02499360144789974925
3.02607460149200280242
1.21076124458129785744
2.97910710518304266969
3.07451577862530012197
3.02673403050540423820
2.97220838827958022677
3.01996922201055539858
3.06314816172380854908
2.75462260385773616278
2.76722509951372730441
2.68863668294964242023
1.94246128104407533854
2.57123725404934777572
0.03436684235906005414
0.07290821869502192576
0.06873368471812010827
3.00967082294815835297
1.75529317429227349479
1.76304362621327093130
1.69654022721715014299
0.11040792327219031699
0.57760794454721553493
0.18585117188810851285
0.22969442208674312189
0.21962018194995650000
0.98275691824340261071
0.93733475864069082384
0.92557377072248736560
0.25457423571152620889
2.45297282599774035816
2.51765237164048016894
2.52903127142473316269
2.70171306787809806238
1.82206831601416574529
0.88087124980920394890
2.46293335722489459272
2.20380728253667967920
2.26962600436571548812
2.27465570404721617592
3.00372740013012418103
2.93679182929092164045
2.97996044215131616895
2.88846559426705828955
2.89951553418770169301
2.82076782119472335708
0.44096522860437092906
0.43823842152467312738
0.39860651140545388937
2.94057152723826931151
0.72280828341789116198
0.67458807112531826711
0.72254159190091560294
1.04054024346958873259
1.10055037827355928215
1.05290140909306306760
0.77360801219780406246
0.48354322589317932923
2.13610202576652241646
2.06996579101980593407
2.13453044339633279947
1.33709304734413603200
1.39112095132143109844
1.40086295297973184582
1.45750563392154131037
2.83337031685071449871
1.57995023322004657373
1.63789448989888608565
1.64575215157674259459
2.33871352805965582178
2.40483309723007687708
2.41283075143509773142
3.16735530277532451038
3.07207279253631337923
3.12027611168691088039
3.12117354573507954640
3.07405122662858509841
3.16915017087166184240
3.11525173224956652973
3.12183297474848098219
1.70439788889500665192
0.99511808386687694572
0.28406720813792063485
0.28679774880550823468
0.32152090471207761535
1.15971492793383124109
1.22227682506107360183
1.17123050841360698548
2.20537886490686929619
2.58363163167465081926
2.64859541386777141980
2.66098979149307401926
2.00676969122888282371