VARIABLES = "X", "Y", "P", "U", "V", "divergence", "vorticity"
ZONE NODES=7555, ELEMENTS=14672, DATAPACKING=BLOCK,
VARLOCATION=([6]=CELLCENTERED), ZONETYPE=FETRIANGLE
0.00000000000000000000
0.01718940755187200672
0.00000000000000000000
0.03437881510374401345
0.01718940755187200672
0.00000000000000000000
0.06861591882269138520
0.05152330249728323541
0.05149736696321770280
0.03443068617187507868
0.03440475063780954607
0.00000000000000000000
0.00000000000000000000
0.01721534308593753934
0.01721534308593753934
0.02627867078206775828
0.05255734156413551655
0.04346807833393976500
0.10482651145549670701
0.09577270107224400419
0.07869192650981611525
0.08671889068899128750
0.06963811612656339856
0.07766740475584132941
0.06054885289636764700
0.07271132338927467631
0.07680672795585796742
0.05561870706386652652
0.08515137582734574884
0.06385363613681402373
0.08097905189160185813
0.04255589644628229168
0.05968131220107013302
0.02127794822314114584
0.03849329130907868518
0.08981295461482965981
0.09886444054797961789
0.11100999040696794828
0.11694212907616780006
0.12905774669683889311
0.10788831869291509724
0.15356459678382955447
0.13228729359539875832
0.14131117174033422379
0.12003386855190342763
0.09390835918141296479
0.13649751542749707922
0.11943043407116461785
0.11522021223906628307
0.10229090494925519028
0.09811858101351128569
0.06390503402571222347
0.04265869222407869116
0.04260729433518049142
0.00000000000000000000
0.00000000000000000000
0.02132934611203934558
0.00000000000000000000
0.02132934611203934558
0.00000000000000000000
0.02127794822314114584
0.13096894065389466655
0.15711136985229262608
0.14308455827456575959
0.20940173632640815549
0.19541073941915693135
0.18325655308935040466
0.18141974251190573497
0.16926555618209918053
0.16749216964786764472
0.15523874460437231404
0.11305532651659044863
0.13019485563849989007
0.14095927720583514842
0.16432105049457640389
0.17507750420532322555
0.14725396913824392864
0.19697194081664487486
0.16896560901124002552
0.18602472251098406408
0.15801839070557918698
0.08729518465744988409
0.08943899348755401935
0.06604884285581635872
0.09394506668871807631
0.07037601576919942648
0.09169203008813604783
0.04680696484968076970
0.06812297916861739799
0.02340348242484038485
0.04473282853687973043
0.11519913534669458388
0.17126765070872668195
0.14556336060080848904
0.14326131890332183261
0.11975421364476328268
0.11750117704418125419
0.22166630494798261752
0.23393087356955710732
0.20767530804073142114
0.25875724159981922101
0.23251155341259494014
0.24634405758468816416
0.20626586522537065926
0.22009836939746388329
0.17991523100460010687
0.19384280386863819712
0.21243472127932511162
0.20148750297366427309
0.22789750174200532062
0.19067168471534695628
0.24332737167091228470
0.21708168348368800382
0.07053590864637354629
0.04712675060402903016
0.04696685772685489646
0.00000000000000000000
0.00000000000000000000
0.02356337530201451508
0.00000000000000000000
0.02356337530201451508
0.00000000000000000000
0.02340348242484038485
0.23542151568333397060
0.26144129504025975796
0.24768608430490843264
0.31309009592911946074
0.29946136502757791931
0.28726569548468960935
0.28583263412603643339
0.27363696458314812343
0.27229493786292779944
0.25988175384779677035
0.18939998643091818242
0.16542608906834857518
0.19126653189909689767
0.14145219170577896795
0.16729263453652729043
0.19313307736727561292
0.11769862919724852213
0.14350777615329374237
0.19505250909196025777
0.16934821898404206486
0.27318568932602016464
0.28761413705222116377
0.25775581939711322832
0.31698553075301416637
0.28712524180113185857
0.30229983390261766507
0.25726495284924949525
0.27243954495073530175
0.22711844683294718505
0.24258122729562742181
0.09479820095068247632
0.07099877340334667664
0.09458144444251842531
0.04719934585601087002
0.07078201689518262563
0.09436468793435438818
0.02359967292800543501
0.04716304823001994662
0.09415487731153623918
0.07074571926919170917
0.16582984387024901629
0.14225970130957987791
0.14185594650767940905
0.11852895113013117712
0.11831219462196712611
0.11790843982006668500
0.21335322914355575596
0.21521977461173447121
0.23730647185619335726
0.21881206094304145315
0.24065218106943800369
0.21689262921835680831
0.28471089405204902389
0.26100868295412116282
0.26268153756074352767
0.23897932646281566660
0.29281307604645734344
0.27078371955515179170
0.30091525804086560747
0.24895856695934376335
0.30895039439693988692
0.27909010544505752360
0.28535862484953666840
0.29889632111264524683
0.31196000809925406028
0.32588331034855855250
0.33867652476799769978
0.31225457944701706658
0.36472254631734163377
0.33834127720829787478
0.35169953554266963902
0.32531826643362588003
0.29978707257573761202
0.35276361188864185925
0.34080467745994208473
0.32638234277959810026
0.32889510410647815331
0.31420940725608159649
0.07120304394573093165
0.04760788694077940086
0.04740361639839513197
0.00000000000000000000
0.00000000000000000000
0.02380394347038970043
0.00000000000000000000
0.02380394347038970043
0.00000000000000000000
0.02359967292800543501
0.19132609608877962359
0.16704440803710032815
0.19076278299268367711
0.14276271998542103270
0.16648109494100438166
0.19019946989658770287
0.11878046046805175451
0.14251121064750044143
0.18979972816375295652
0.16622958560308379039
0.37723326473996354746
0.36421025396529160822
0.38974398316258546116
0.33870080990701489920
0.36431152388491039318
0.35149402432645404648
0.41511782002057295848
0.40243090159157923758
0.38971467195274167583
0.37702775352374795492
0.21183316148598738127
0.23578640419862495481
0.23426633654105658011
0.28344644765753806981
0.28218200126302711572
0.25974423655961020874
0.27986906596932242808
0.25706770125518951797
0.28102553361617477190
0.25822416890204186180
0.30863940327657257701
0.31674158527098084104
0.33256791250109607461
0.33257080417210271861
0.34815607759119127085
0.32453566781602843916
0.38038569028837987407
0.35647680139473797434
0.36427088393978557246
0.34036199504614367273
0.21351712652460086428
0.21295381342850489004
0.23570815696042207721
0.21223290321882215537
0.25778861146487225264
0.23498724675073934254
0.42115467332409761703
0.39512424818829938733
0.40679755293905150992
0.36909382305250121314
0.38076712780325328023
0.39244043255400540282
0.34303967690275771751
0.35494925025622164894
0.37858148943567349054
0.36662255500697371602
0.09535509890552260059
0.09591199686036273875
0.07175994190057106981
0.09714299169434767456
0.07273199696057933150
0.09652749427735521359
0.04832100222681098151
0.07211649954358685666
0.02416050111340549075
0.04796444458379518772
0.16788035541498919079
0.14443461474119875798
0.14359866736330989534
0.12078880321777321627
0.12017330580078075530
0.11933735842289189266
0.39059112733452605593
0.37447632098593175431
0.40079656438067218227
0.35862495032184626975
0.41097561885238487189
0.38494519371658669771
0.42789362813348486014
0.44066943624639676180
0.41520670970449113923
0.46708641900026798277
0.44156449788926233069
0.45387792762333234453
0.41604257677825667860
0.42835600651232674796
0.39038256154779915619
0.40289327997042106988
0.29761709569803884712
0.29877356334489124645
0.31536512542675532167
0.30094605623412351569
0.31718121841619795198
0.29968160983961256161
0.35053561960745688308
0.33295037251710613013
0.33385841901182744529
0.31627317192147663683
0.35805952600514967532
0.34138232540952018201
0.36558343240284241205
0.32487456545864701329
0.37298456134561114306
0.34907567245196924333
0.43260460999019034745
0.41824748960514424034
0.44405454665628302235
0.40424150466613106847
0.45557048282827550256
0.43004856171726985048
0.29412249404054396917
0.26823486795141981975
0.29049441279580984210
0.24234724186229572584
0.26460678670668569268
0.28686633155107571502
0.21683666897553766084
0.23902769941135890153
0.28336769876019907155
0.26128724425574889612
0.00000000000000000000
0.02416050111340549075
0.00000000000000000000
0.07297549835583265476
0.04880800501731763497
0.04856450362206431171
0.00000000000000000000
0.00000000000000000000
0.02440400250865881748
0.02440400250865881748
0.12240157332575959948
0.14604738484918514119
0.14766015495717152439
0.19317491746427084554
0.19502373883976209523
0.16972917679048044048
0.19874192457462663830
0.17320103976589906747
0.19688283170719436677
0.17134194689846682369
0.44032913732260858808
0.46554045462464427318
0.45310494543552048974
0.51556041535615848570
0.50328619016531805919
0.49055043499040140720
0.49101196497447774370
0.47827620979956098068
0.47904919198737283548
0.46584070061043725275
0.21868549035102891054
0.27034698175117860552
0.24657146946181326963
0.24445935566205451162
0.22265669701821994009
0.22079760415078769631
0.40551139522487705813
0.41571683227102318448
0.43063710016137424219
0.43577193476349140866
0.45038919620288520029
0.42559288029177866353
0.48127364760431379231
0.45595537388284401725
0.46583142190359949630
0.44051314818212972124
0.30398902240277464459
0.32173705213149106363
0.32810897883622686111
0.35710748314862927888
0.36367934668980161916
0.33952223605827847042
0.37711887765659102278
0.35261392824640891419
0.37039911217319632097
0.34589416276301421238
0.30748765519365128807
0.35642929826495201029
0.33573971887331299779
0.33192434885476995721
0.31493110645692845573
0.31130302521219432865
0.44695354997107256123
0.45840348663716523614
0.47275242661804750544
0.48098526431595961528
0.49488410963165124778
0.46946932814396713507
0.52436924461262612862
0.49856083561533681703
0.50962667712213871596
0.48381826812484940437
0.39410352316702262909
0.40782135604566538412
0.38670239422425389808
0.43635280531091319434
0.41477502401139176857
0.42208708067828926147
0.39319724271187039832
0.40050929937876789122
0.37186643115966366846
0.37939033755735640518
0.02503713248473643516
0.04944113499339525264
0.05007426496947287031
0.09803250337894084399
0.09892201506353399953
0.07386501004042581031
0.10064512512198418859
0.07535969504572853639
0.09978357009275909406
0.07449814001650342798
0.47016911003724048967
0.45906457247016718703
0.44485083631577071461
0.44770868889054016293
0.43344296425791628558
0.41922922810351981315
0.46157081141046635286
0.51365414095380912407
0.50293903729499200850
0.48784573195651975697
0.49210634244965290041
0.47666411674893860440
0.12527853084113271809
0.12441697581190763744
0.14991193656028126147
0.12329108501035276890
0.17432693056745396376
0.14878604575872639293
0.52829902798115058182
0.54103764060614256692
0.51602480279031015531
0.56800660832341098860
0.54285474597682092934
0.55452212446477677776
0.51770288363023075906
0.52937026211818660748
0.49239465131524939867
0.50435742430235430689
0.39207245182124927929
0.38535268633785457748
0.40702602598590759131
0.37843829470083600874
0.42168941564841039282
0.40011163434888896706
0.30641079994901287975
0.27934974034196158321
0.30338229287012008495
0.25228868073491034218
0.27632123326306878841
0.30035378579122723464
0.22551530265476849024
0.24943007509836179203
0.29723813991588560190
0.27346262762652023826
0.53521341218133677842
0.52047084469084936575
0.54605757975004753924
0.50629349663094103118
0.55703209403672926392
0.53188023169013920466
0.38715536833475006073
0.39719185901290909868
0.36646578894311104824
0.41701068011155917326
0.38617463038616639537
0.40710126956223413597
0.35533858066077361748
0.37626521983684135808
0.32473053735065882108
0.34553914976704330764
0.00000000000000000000
0.00000000000000000000
0.02525419045383796995
0.00000000000000000000
0.02525419045383796995
0.05050838090767593991
0.00000000000000000000
0.02503713248473643516
0.07557675301483006425
0.05029132293857440511
0.32784618322600045381
0.38946445235065429991
0.36191822458974948207
0.35862840262526152202
0.33416451226938115315
0.33113600519048835835
0.12702410530284499734
0.15165751102199354072
0.15340308548370581998
0.20075221065159534750
0.20276249672856405670
0.17633721664442264521
0.20656829101850376906
0.17998568825110478064
0.20466539387353391288
0.17808279110613495222
0.50814902964033392685
0.51898172448567292392
0.53502441167635395036
0.54001469338327878766
0.55566014215393155773
0.52929958972446178311
0.58910365309217260776
0.56206403238426327906
0.57238189762305213826
0.54534227691514280956
0.28150886906954186717
0.25660693819007085459
0.25444780946249057063
0.23158761460428731183
0.22968471745931745565
0.22752558873173719944
0.49681740061467466463
0.51236115362503553694
0.48571286304760136199
0.54454987359547146752
0.51736542230847493151
0.52845551361025355774
0.49018097102147850652
0.50127106232325702173
0.46326688816619587818
0.47462277174582284678
0.57929378207885162677
0.56580929822021741593
0.59058095583429226494
0.54035374819295312054
0.56514708102974775539
0.55309236081794521667
0.61428505235921759819
0.60243300409675493157
0.58971606669448273230
0.57786401843202006567
0.48971522072665546466
0.46144846670601591399
0.47638793194953343857
0.43318171268537630780
0.44812117792889383239
0.46306064317241135697
0.40515029517098366529
0.42010386933564192180
0.44970672424166224790
0.43504333457915944638
0.58257282389372200271
0.59713903946403301681
0.57159830960704027802
0.62878242775976800338
0.60268529825951744350
0.61296073361190051010
0.57658816875926699463
0.58686360411164995021
0.55047870668594656163
0.56132287425465721142
0.55595843980073222923
0.53986407981551431945
0.56736700600599299094
0.52369278265069474365
0.57823532954908274384
0.55119570884117341514
0.47165600338304558559
0.45359678603943570652
0.44338924936240597940
0.43530373307549741213
0.42539432252617237484
0.41518678584914270324
0.59913110341957653837
0.58240934795045595784
0.60915855374698046898
0.56612415545659922067
0.61897049075337418067
0.59287336125312373181
0.02563973302731463108
0.05089392348115259757
0.05127946605462926216
0.10125992278946661929
0.10187472045694904998
0.07619155068231249495
0.10298724069876501186
0.07713335337669713354
0.10243098057785703092
0.07657709325578915260
0.53111188146190935200
0.51767388932834712545
0.50392743017491281599
0.50369455502750126730
0.49036726625037924121
0.47662080709694493175
0.18076947764509801453
0.15497066427169225999
0.15418687487769905387
0.12897895248522864287
0.12842269236432066193
0.12763890297032742804
0.32986862950238649006
0.35762234182275476346
0.35332645905576010037
0.41286374278183368691
0.40871680545210825608
0.38531751502092886907
0.40019940105582674228
0.37676293005579342132
0.40445810325396747142
0.38102163225393415047
0.32469464993556867993
0.29500869253773487344
0.32015463616053796425
0.26532273513990112246
0.29046867876270421327
0.31561462238550730408
0.23594551307920244576
0.26096483666498598852
0.31101271116726009192
0.28611078028778907933
0.62709585304370452086
0.63990665372819133250
0.61524380478124185423
0.66792182125276655658
0.64301872781269175938
0.65391423749047894454
0.61811563437261685117
0.62901114405040403632
0.59306112134801391989
0.60434829510345455805
0.63843012020536193951
0.62260842605749444623
0.64807781265095587564
0.60762733691832493399
0.65799981695186127162
0.63309672351178636340
0.33447054072063370223
0.38145255887335915990
0.36270571669089152200
0.35801608787332583894
0.34370018331323010097
0.33916016953819938529
0.45087230562602637063
0.46916535858996466501
0.48473393114049356800
0.50565634428652894705
0.52159746784640237394
0.48759712694291901247
0.55315422227560107071
0.51894407670804731936
0.53737584506100177784
0.50316569949344791546
0.57349624906112595113
0.58490481526638671284
0.60244262452678032371
0.60679586148529129908
0.62448806987841010141
0.59592753794220154617
0.66103204046773944569
0.63173733249725994021
0.64276005517307477355
0.61346534720259526807
0.07729725246443967801
0.05160726423011433722
0.05144336514237179969
0.00000000000000000000
0.00000000000000000000
0.02580363211505716861
0.00000000000000000000
0.02580363211505716861
0.00000000000000000000
0.02563973302731463108
0.50180943789964282953
0.47635657174903195399
0.48053879012564293394
0.45090370559842107845
0.45508592397503205840
0.45926814235164303835
0.42555155332712391036
0.42981025552526463951
0.43813941123160110580
0.43399247390187567497
0.61687526804222803101
0.62690271836963185059
0.64464688299228334323
0.64604156777206478424
0.66330070778436156509
0.63622963076567096152
0.70044560312976089644
0.67254624306102206432
0.68187315545706117526
0.65397379538832245416
0.20849680376225060430
0.18201747858416064685
0.20804782648068761985
0.15553815340607068940
0.18156850130259766241
0.20759884919912463541
0.12926269705241785757
0.15525440883888147470
0.20708357010881420224
0.18128475673540844770
0.47200103674606830317
0.54031245893256274471
0.52747069558952452972
0.50610231336500910437
0.51464006674458362411
0.49336941897058378403
0.56124301893918937534
0.57793616428290728315
0.54780502680562714879
0.61112172085664229204
0.58055524180135320567
0.59452894256977484311
0.54998876274606411929
0.56396246351448575673
0.51985199173635976422
0.53383132603720562237
0.29573589172064618236
0.26677713350572368478
0.26604993432281243138
0.23763696863398714454
0.23718799135242416010
0.23646079216951287894
0.69104398646249332039
0.68164236979522574433
0.66314462639375459929
0.67133720513148253950
0.65306521983681786736
0.63456747643534672232
0.63864309243627270796
0.66300113251332792874
0.65145389312075963062
0.71137849205627989857
0.70003041119027287209
0.68718981228480391366
0.68868233032426584561
0.67584173141879688718
0.67830207578851620109
0.66429449202622858905
0.62407239908675160578
0.60747962079988415685
0.63702307731686103054
0.59018939440484374792
0.64902755889230023811
0.61973285092182073264
0.56780783037983439954
0.55202945316523499564
0.58246143848406761734
0.53579311529623319110
0.59679157967035489918
0.56622510061506581280
0.65501714106647201952
0.66466483351206595565
0.68125185437317614667
0.68351499606765742101
0.69910817088254828544
0.67359299176675202503
0.73363744081697612742
0.70744464759507619256
0.71637280584976226194
0.69018001262786221606
0.35657353362426075227
0.37557906700192217331
0.38845241731295282461
0.41319759231081149009
0.42619578356579623790
0.39445075012834385220
0.45203288807918279302
0.42024265269606780882
0.43911433582248948770
0.40732410043937450350
0.72547458249634599881
0.71731172417571575917
0.69928178927444595292
0.70887866365273832781
0.69030621598003860662
0.67227628107876880037
0.10338781505764006730
0.07745773638354433444
0.10331786423348138237
0.05152765770944860158
0.07738778555938563564
0.10324791340932268358
0.02576382885472430079
0.05156746096978147287
0.10311757705404384078
0.07742758881971850693
0.48943231369956002874
0.47705518949947722795
0.46397944754894915320
0.46454403878933003824
0.45162548653263673293
0.43854974458210865818
0.18226064351652310203
0.15602448327079559975
0.15578131833843314458
0.12970614916421782659
0.12963619834005912779
0.12939303340769670037
0.53172947584289176337
0.54456010468783255796
0.56164951378614069721
0.57038646787178781672
0.58761871346797467375
0.55754470452874960174
0.62164089982235548604
0.59164520680424814714
0.60462980664516507989
0.57463411362705762997
0.29884786259927292873
0.27627528287233049653
0.30541773585225734378
0.25370270314538811984
0.28284515612531491158
0.31198760910524175882
0.23109975345381936207
0.26023991832555593007
0.31834112952040521938
0.28938237130548272180
0.77998875894600616654
0.75019619784642510574
0.75986292854568016075
0.72040363674684393391
0.73007036744609898893
0.73973709814535404394
0.69071783860729163429
0.70102300327103483912
0.72009135063755747019
0.71068973397028989414
0.72441483924124150384
0.73745118642620299809
0.71306675837523436634
0.76698545531525752494
0.74226716220916921785
0.75221832087073026152
0.71754886910308102177
0.72750002776464195442
0.69273534517792378917
0.70311559971367343369
0.74170953853632948238
0.72444490356911561690
0.74978163625568283734
0.70832851999281465361
0.75838354578547018114
0.73366525267938187405
0.58441428390822203198
0.59906789201245524978
0.61567434554084299325
0.62833810347357976767
0.64555448609051713227
0.61400796228729237480
0.67895394962716237863
0.64731414758400274145
0.66225421785883975545
0.63061441581568011827
0.34354682672083869388
0.37542571040953076622
0.36239900350610870783
0.43916007226365461058
0.42628725644812637263
0.40736983688053962638
0.40006920508847565454
0.38123410429729220894
0.41317823076830101359
0.39434312997711751247
0.64196254546133291186
0.65491322369144222559
0.67280337006602342065
0.67978592582424668400
0.69853981118075403334
0.66778144424880747643
0.73533033254121404898
0.70406685130361879033
0.71693507186098404116
0.68567159062338878250
0.60164652950440888901
0.66451162147801778879
0.65006929332887308792
0.63287181943485804059
0.63585509657561423147
0.61884400339842393635
0.37477849992692802150
0.34948779476538038846
0.35594339913574457590
0.32416782868232663084
0.33073770193531104589
0.33719330630567523333
0.07757790092594918363
0.05176798679425829303
0.05164782225185345077
0.00000000000000000000
0.00000000000000000000
0.02588399339712914651
0.00000000000000000000
0.02588399339712914651
0.00000000000000000000
0.02576382885472430079
0.81178130953597982256
0.78403231786396498926
0.79158440215512138050
0.75628332619195015596
0.76383541048310654720
0.77138749477426293844
0.72836446466085558171
0.73679752518383301307
0.75251246779561953293
0.74434960947498929329
0.74728543718035611576
0.72889017650012610794
0.75924054181949829356
0.70947172396379898363
0.76961465038275223005
0.73982208928317105823
0.51852261747779482270
0.53523579705594681588
0.50614549327771207743
0.56855481421713838230
0.53941575372387040588
0.55189530563654254358
0.51027669323060242945
0.52275624514327456716
0.48115479065489263899
0.49366594136503982870
0.60832589601916753352
0.59501089221597969203
0.57833020300106019462
0.58178285321655898166
0.56512334463596325396
0.54844265542104375655
0.13133207790078296751
0.15765041200736074067
0.15927634074392585384
0.21031970904283242563
0.21214261432341421920
0.18408354879710492336
0.21549510779000374816
0.18738572426696481488
0.21381886105670899756
0.18570947753367003652
0.78852576803592433485
0.76839993763559832907
0.79706277712584261419
0.74801021216865204444
0.80442204333091127388
0.77667305165889644059
0.65917892807827027646
0.72157453511177704897
0.70781873768234004896
0.69031105387418167929
0.69338634365475115828
0.67668661188642853510
0.27810327365685139078
0.25735868471442979732
0.25553069392990895858
0.23642689625221677274
0.23475064951892199439
0.23292265873440115564
0.77640164257920507573
0.76163450813467781231
0.78581782984315273755
0.73545962331504655118
0.75954075457381331482
0.74849597050000815646
0.80763511138055521510
0.79672647061185397632
0.78358793297718420945
0.77267929220848308169
0.78367816247470911684
0.80037086963416081975
0.77507625294492177304
0.83742278577292206254
0.81159341813191232529
0.81889682770354144115
0.78576405049090258803
0.79306746006253170389
0.75970074565393930222
0.76777284337329265718
0.46809884631772669117
0.48416480455627053381
0.45522603050219845322
0.51619643621780597620
0.48720422114610861808
0.50018062038703825500
0.45821200607441120445
0.47118840531534089688
0.42914060558144340174
0.44224963126126881630
0.81827805107886886216
0.79808114369801042010
0.82477479262175790176
0.77857577263258281874
0.83109878919734003766
0.80526942155633030040
0.69504278643093730938
0.71113162323471224013
0.68060045828179260852
0.74216382898585142591
0.71198674019040242289
0.72664772611028183302
0.68180965139495341987
0.69647063731483283000
0.65172527560865445295
0.66593947236191319838
0.49722074889343648163
0.55555033767399630840
0.54254586113085434551
0.52641127718072833197
0.52937114867433021637
0.51335533284356249517
0.09424409917309124751
0.07064574055016911713
0.09656077209982279197
0.04704738192724700063
0.07296241347690066159
0.09887744502655433643
0.02352369096362350032
0.04940768436075264336
0.10113263004209720186
0.07532271591040631820
0.38646555263966730909
0.37286190019085890812
0.36117484747811967605
0.34522024551088403843
0.33365304460080380533
0.35904107285087150103
0.32208584369072351672
0.34747387194079121242
0.31046685314499822272
0.33578681922805198035
0.18519038635653650715
0.15488566492306929390
0.15708100283349757387
0.12456488204808027764
0.12688155497481182210
0.12907689288524010207
0.85856205965594467600
0.82783001238072495553
0.83931594073844162374
0.79709796510550534610
0.80858389346322190327
0.82006982182093846045
0.76621414882335969754
0.77816925346250176432
0.80002929038347225799
0.78965518182021843252
0.28972226420257662927
0.31279277547240158519
0.28036530543391918746
0.30122557456232135209
0.24793020661196146781
0.26886199507417452015
0.63773162877407796323
0.65382235772580055144
0.62441662497089012174
0.68569246404347994339
0.65647302008450236777
0.66975741088464024742
0.62725357612552479214
0.64053796692566267179
0.59790419517133153171
0.61113223417075224209
0.89474722490698310740
0.86644601615649796678
0.87401929372603837098
0.83814480740601282616
0.84571808497555323036
0.85329136254509363457
0.80906678317600944084
0.81760379226592772017
0.83253633604053667305
0.82517706983546812438
0.75349175573788884641
0.77165317893456364384
0.73973595830845184640
0.80565846005813857023
0.77387111921484219579
0.78865581949635110703
0.74208377837154593237
0.75686847865305484362
0.71051886399935415550
0.72495125802694304618
0.72779786228964615802
0.71343189559344100115
0.69762077349419726602
0.69956217981846047227
0.68362712665962077629
0.66781600456037693014
0.82105604164697010283
0.83447697191338510159
0.81014740087826897508
0.86552394592331882706
0.84093846687032691722
0.85000045891835196432
0.81635298781733500739
0.82541497986536005449
0.79166922156629626617
0.80108540883024392798
0.80836192872574796908
0.85803482786382301306
0.85054570980432719907
0.83344934881083110323
0.84398424778862457529
0.82545828971924395390
0.88679479736124289246
0.87884236981550278855
0.85849358861075786287
0.86870221473572373228
0.84945609581822068002
0.82910731461347564331
0.72660770080312908625
0.78965357872538621820
0.77364869739263386617
0.75786623788208995478
0.75790626318924259053
0.74239016031367310866
0.46224162128983870002
0.44672220902804060660
0.47585369405072736049
0.43120279676624256870
0.46033428178892932259
0.48946576681161602096
0.41563600092735908387
0.44470740142032688658
0.50283110151471099858
0.47383888644301364046
0.85714232166376236322
0.87686185755460277491
0.85081832508818033833
0.91801468311198619610
0.89187859426950955033
0.89743827033329448550
0.86574250542703279354
0.87130218149081772872
0.83876190748150625254
0.84525864902439540316
0.43300554580186412235
0.40376947031388960019
0.41748613354006608445
0.37449485791238679155
0.38831568525237425415
0.40203234847855073841
0.84611176453406933273
0.83366146941219398947
0.81537971725884972329
0.81965996473516633536
0.80265732417337876115
0.78437557202003449497
0.00000000000000000000
0.00000000000000000000
0.02359992949529438055
0.00000000000000000000
0.02359992949529438055
0.04719985899058876111
0.00000000000000000000
0.02352369096362350032
0.07072197908183999737
0.04712362045891788087
0.58462012785418759897
0.60068544149123692666
0.57161565131104563608
0.63251750758908520389
0.60352046146672055915
0.61660147454016112079
0.57452341534435591441
0.58760442841779636503
0.54535992578108094531
0.55853463823760507445
0.91271745094720180269
0.90742021878241740929
0.88658136210472515693
0.90108372184470031385
0.88035579066375557744
0.85951693398606321406
0.20433511026344314265
0.19317511273688256490
0.17403038882997592940
0.17055027245994058838
0.15146192552853657287
0.18186269259841159052
0.13237357859713255737
0.16277434566700754726
0.11330883888511189550
0.14362962176010091175
0.64582777230893939624
0.62991173926001520211
0.65913803702879347757
0.61396950880838085940
0.67241525053613671048
0.64319580657715913485
0.33078730186781907241
0.31635435822475410639
0.29835983182933667468
0.28717891598588696223
0.26926673478828627717
0.30176663710532053431
0.25135455359068559211
0.28385445590771984925
0.23342483069034467014
0.26585992951230241754
0.83170390555062989613
0.85577269972070457715
0.84512483581704489488
0.90400263213294385078
0.89339675941574059337
0.87988766592682421397
0.88279088669853722493
0.86928179320962084553
0.87415741631092802599
0.85863392930596116326
0.75671791629276619062
0.77127200359968106635
0.74235194959656103375
0.79980683475522174053
0.77143290818447529666
0.78553941917745140344
0.74305898161372885280
0.75716549260670495958
0.71437572282860439810
0.72824543860358492697
0.22226483316378409238
0.25801242098500321021
0.22884592598411940267
0.24010023978740249739
0.19969809922202999553
0.21101051936050096991
0.86280483018581044519
0.86936629220151295794
0.88818687459869871681
0.88279898670759826551
0.90007402749187781499
0.87530986864810245152
0.93773176973945948642
0.91295932216907904611
0.91890289861566865071
0.89413045104528832141
0.88252436607665074586
0.93276880588093313840
0.92780584202240690139
0.90799635831055280910
0.92291026256719654874
0.90233384978850483815
0.77151900121844685376
0.78726143542183812940
0.80087417345104228161
0.81958658784084392757
0.83351471562354928491
0.80358170650809157554
0.85917779306187591626
0.83002598325645915445
0.84634625434271260058
0.81719444453729583877
0.57891405283328101206
0.54982432235872513715
0.56330294910618394777
0.52073459188416915122
0.53421321863162796184
0.54769184537908688348
0.49148810658700392562
0.50510017934789264160
0.53194414079844642984
0.51857880609535145222
0.91071504191261953842
0.92668285891825585843
0.90276261436687932349
0.95592293165185404646
0.93245077377020169074
0.94130289528505495245
0.90897861588854922399
0.91783073740340248570
0.88377033777224700550
0.89391049285202606178
0.59242903762757115338
0.57681793390047420012
0.60594402242186140572
0.56110763036172139895
0.61923076500547336032
0.59023371888310860456
0.93980168013988141240
0.90667067278340962577
0.92057234712030600043
0.87353966542693783914
0.88744133976383410278
0.90134301410073047744
0.83959906274253826020
0.85360056741956591431
0.87995253687833763223
0.86750224175646217795
0.44841721982625237786
0.43459281836266605570
0.41918114433827780019
0.40655169867509538539