VARIABLES = "X", "Y", "P", "U", "V", "divergence", "vorticity"
ZONE NODES=7555, ELEMENTS=14672, DATAPACKING=BLOCK,
VARLOCATION=([6]=CELLCENTERED), ZONETYPE=FETRIANGLE
0.00000000000000000000
0.01632486067477971481
0.00000000000000000000
0.03264972134955942962
0.01632486067477971481
0.00000000000000000000
0.06529944269911885923
0.04897458202433914443
0.04897458202433914443
0.03264972134955942962
0.03264972134955942962
0.00000000000000000000
0.00000000000000000000
0.01632486067477971481
0.01632486067477971481
0.02500000000000000139
0.05000000000000000278
0.04132486067477971620
0.10000000000000000555
0.09132486067477971203
0.07500000000000001110
0.08264972134955943239
0.06632486067477971758
0.07397458202433915275
0.05764972134955943101
0.06915404528875540580
0.07300864787839195236
0.05282918461397569099
0.08071785305766503160
0.06053838979324877023
0.07686325046802849892
0.04035892652883251580
0.05668378720361223755
0.02017946326441625790
0.03650432393919597618
0.08553614004296111739
0.09421127936818141091
0.10577283738680337555
0.11156155801862197019
0.12312311603724394871
0.10288641869340169055
0.14624623207448789186
0.12600953473064563370
0.13468467405586592722
0.11444797671202366907
0.08939074263259766395
0.12986413732028218027
0.11348204256607646867
0.10962743997643992211
0.09709994781187075708
0.09324534522223421051
0.06053838979324877023
0.04035892652883251580
0.04035892652883251580
0.00000000000000000000
0.00000000000000000000
0.02017946326441625790
0.00000000000000000000
0.02017946326441625790
0.00000000000000000000
0.02017946326441625790
0.12500000000000000000
0.15000000000000002220
0.13656155801862199239
0.20000000000000001110
0.18656155801862198129
0.17500000000000001665
0.17312311603724395148
0.16156155801862198684
0.15968467405586592167
0.14812311603724395703
0.10701704598620898068
0.12339914074041469227
0.13331623891475291588
0.15616333024882611547
0.16608042842316433907
0.13978123549462040387
0.18591462477184078628
0.15961543184329685108
0.17599752659750256267
0.14969833366895862747
0.08255527468938528290
0.08439269632110554809
0.06237581142496903541
0.08806753958454605069
0.06605065468840953802
0.08623011795282579939
0.04403376979227302535
0.06421323305668928672
0.02201688489613651267
0.04219634816055277404
0.10885446761792923198
0.16145285347501708850
0.13699108217819341848
0.13515366054647315330
0.11252931088136973459
0.11069188924964948328
0.21168290830021901927
0.22336581660043799968
0.19824446631884096170
0.24673163320087598827
0.22161028291927897804
0.23504872490065698010
0.19648893263768194006
0.20992737461905996987
0.17136758235608490208
0.18480602433746295965
0.20111887687909957290
0.19120177870476134929
0.21632312898635838727
0.18128468053042312569
0.23152738109361720165
0.20640603081202016367
0.06605065468840953802
0.04403376979227302535
0.04403376979227302535
0.00000000000000000000
0.00000000000000000000
0.02201688489613651267
0.00000000000000000000
0.02201688489613651267
0.00000000000000000000
0.02201688489613651267
0.22500000000000000555
0.25000000000000000000
0.23668290830021898596
0.29999999999999998890
0.28668290830021903037
0.27500000000000002220
0.27336581660043801634
0.26168290830021900817
0.26004872490065700230
0.24836581660043799413
0.17611592067105619197
0.15410382539942865665
0.17856559669625232667
0.13209173012780112133
0.15655350142462481910
0.18101527272144848912
0.11007963485617358601
0.13454140615299725603
0.18346494874664465158
0.15900317744982095380
0.26016668277824728239
0.27360173235561857652
0.24496243067098849577
0.30047183151036122029
0.27183252982573113954
0.28703678193298987065
0.24319322814110100328
0.25839748024835978990
0.21455392645647089478
0.22975817856372970915
0.08749174728523083366
0.06561881046392312178
0.08763569536005963445
0.04374587364261541683
0.06576275853875193644
0.08777964343488844912
0.02187293682130770842
0.04388982171744422456
0.08792359150971724990
0.06590670661358073723
0.15395987732459986974
0.13180383397814351976
0.13194778205297230667
0.10964779063168716977
0.10979173870651598444
0.10993568678134478522
0.19864349256091937135
0.20109316858611553380
0.22117106445078255073
0.20599252063650780320
0.22607041650117484788
0.20354284461131166850
0.26622620823050890948
0.24369863634064573010
0.24614831236584189256
0.22362074047597868542
0.27478761405047197330
0.25470971818580495638
0.28334901987043503713
0.23463182232113793946
0.29191042569039815646
0.26327112400576802020
0.27239454242187527422
0.28571163412165628825
0.29805745164287456017
0.31234581752121826081
0.32469163504243658824
0.29902872582143730229
0.34938327008487318759
0.32372036086387390164
0.33703745256365491567
0.31137454334265557421
0.28582959199924656835
0.33715541044124519576
0.32492755079761720394
0.31149250122024585430
0.31269969115398921211
0.29926464157661791798
0.06561881046392312178
0.04374587364261541683
0.04374587364261541683
0.00000000000000000000
0.00000000000000000000
0.02187293682130770842
0.00000000000000000000
0.02187293682130770842
0.00000000000000000000
0.02187293682130770842
0.17487706142596148862
0.15303073289077884223
0.17518677623723516446
0.13118440435559616808
0.15334044770205251806
0.17549649104850884029
0.10933807582041349393
0.13149411916686984392
0.17580620585978251613
0.15365016251332619390
0.36203745256365493788
0.34969163504243661045
0.37469163504243663265
0.32499999999999995559
0.34999999999999997780
0.33734581752121828302
0.40000000000000002220
0.38734581752121832743
0.37500000000000000000
0.36234581752121830522
0.19650536376371691150
0.21903293565358011863
0.21689480685637765878
0.26408807943330647738
0.26194995063610404529
0.24156050754344329801
0.25767369304169912558
0.23728424994903840606
0.25981182183890161319
0.23942237874624083815
0.28887974300589502885
0.29744114882585803716
0.31153327778128109271
0.31456396046578427583
0.32865608942120727587
0.30600255464582115650
0.35684034733205327594
0.33418681255666715657
0.34274821837663027591
0.32009468360124415653
0.19557621932989588398
0.19588593414116955982
0.21627537723383030710
0.19619564895244323566
0.23697453513776473022
0.21658509204510398294
0.40081500443034140391
0.37572921120034635800
0.38795707084397434983
0.35064341797035131210
0.36287127761397930392
0.37509913725760729575
0.32555762474035626619
0.33778548438398425802
0.36224120367124024167
0.35001334402761224984
0.08761057352196567616
0.08772939975870051865
0.06573763670065796427
0.08796705223217020364
0.06597528917412764926
0.08784822599543536115
0.04398352611608510182
0.06585646293739280677
0.02199176305804255091
0.04386469987935025933
0.15314955912751365696
0.13142205682906585307
0.13130323059233101057
0.10969455453061802142
0.10957572829388317892
0.10945690205714833643
0.36783401160662532181
0.35374188265120232177
0.37882767588119736768
0.33964975369577932174
0.38982134015576941355
0.36473554692577436764
0.41246118747054894005
0.42492237494109780238
0.39980700499176724527
0.44984474988219558256
0.42472937993286496994
0.43738356241164666471
0.39961400998353435732
0.41226819246231605209
0.37449864003420374470
0.38715282251298549498
0.27436822558498152880
0.27650635438218401640
0.29106275812826398752
0.28078261197658888060
0.29533901572266885172
0.27864448317938644850
0.32445182321482879395
0.30775729067154639074
0.30989541946874882283
0.29320088692546641962
0.33254895424413488669
0.31799255049805497109
0.34064608527344103495
0.30343614675197494446
0.34874321630274718320
0.32608968152736106383
0.41307244079330496245
0.40021450720693785286
0.42532987715626846548
0.38735657362057085429
0.43758731351923202402
0.41247194356990141140
0.26555046523668279779
0.24288211428400247049
0.26358127218793686586
0.22021376333132214320
0.24091292123525653857
0.26161207913919093393
0.19754541237864181591
0.21824457028257621127
0.25964288609044505751
0.23894372818651060664
0.00000000000000000000
0.02199176305804255091
0.00000000000000000000
0.06597528917412764926
0.04398352611608510182
0.04398352611608510182
0.00000000000000000000
0.00000000000000000000
0.02199176305804255091
0.02199176305804255091
0.11047599064916877043
0.13220349294761660208
0.13298492906616735110
0.17565849754451223763
0.17643993366306298665
0.15393099524606440598
0.17800280590016451243
0.15549386748316593176
0.17722136978161373566
0.15471243136461515499
0.42500000000000004441
0.45000000000000001110
0.43746118747054890674
0.50000000000000000000
0.48746118747054889564
0.47499999999999997780
0.47492237494109779128
0.46246118747054887343
0.46238356241164668692
0.44992237494109776907
0.19832684849719256492
0.24366355040255321951
0.22177663556842364123
0.22099519944987289222
0.19988972073429406295
0.19910828461574331394
0.38034204415395134191
0.39133570842852338778
0.40384374097584940788
0.41332303697766747952
0.42583106952499349962
0.40232937270309543365
0.45084713461964559533
0.42734543779774747385
0.43833910207231951972
0.41483740525042145375
0.27905830095145944814
0.29575283349474190686
0.30044290886121982620
0.32914189858130671329
0.33383197394778463263
0.31244736603802431008
0.34321212468074052682
0.32182751677098020426
0.33852204931426255197
0.31713744140450222941
0.28102749400020538006
0.32379670981972608068
0.30438129495871169006
0.30241210190996575813
0.28496588009769724392
0.28299668704895131199
0.42561757758663809614
0.43787501394960159917
0.45042015074293473287
0.46238988667552871625
0.47493502346886179444
0.45013245031256510220
0.50002529705552800632
0.47522272389923136959
0.48748016026219487262
0.46267758710589823590
0.36812009519318839024
0.37939984305432350453
0.36002296416388224198
0.40195933877659378863
0.38258245988615258160
0.39067959091545867434
0.36320558099571131905
0.37130271202501741179
0.34382870210527005650
0.35192583313457614924
0.02234229106065564394
0.04433405411869819485
0.04468458212131128787
0.08831758023478329667
0.08866810823739638969
0.06632581717674074229
0.08936916424262257574
0.06702687318196692834
0.08901863624000948272
0.06667634517935383531
0.43862518565888264366
0.42640323669811969198
0.41512348883698457769
0.41418128773735674031
0.40290153987622157050
0.39162179201508645621
0.43812561013396411624
0.48773075644655738969
0.47543621583758677307
0.46292818329026075297
0.46314167522861615645
0.45063364268129013634
0.11152757465700804951
0.11117704665439495648
0.13368598507139353715
0.11082651865178186346
0.15584439548577902479
0.13333545706878044412
0.51249914532370388631
0.52499829064740777262
0.49996033279425278195
0.54999658129481565627
0.52495862344166066560
0.53749743597111176996
0.49992066558850561941
0.51245947811795666826
0.47488270773535057323
0.48742152026480167759
0.35789892820470381452
0.35320885283822589518
0.37258573172866715772
0.34851877747174797584
0.38727253525263050093
0.36789565636218923839
0.27152680243758547940
0.24814580330323024460
0.27003271813735985063
0.22476480416887500979
0.24665171900300458807
0.26853863383713416635
0.20138380503451974723
0.22327071986864932551
0.26704454953690848207
0.24515763470277890379
0.51251811811534997432
0.49997298132201684062
0.52501093917517183129
0.48742784452868370693
0.53750376023499368827
0.51246580238183869760
0.35036876260612137557
0.35752540053150222432
0.33095334774510698495
0.37183867638226392183
0.34526662359586868245
0.36468203845688307307
0.31869457080947338756
0.33810998567048777819
0.29212251802307809267
0.31153793288409253881
0.00000000000000000000
0.00000000000000000000
0.02234229106065564394
0.00000000000000000000
0.02234229106065564394
0.04468458212131128787
0.00000000000000000000
0.02234229106065564394
0.06702687318196692834
0.04468458212131128787
0.29361660232330377696
0.34676070789609431122
0.32168273940992470061
0.32018865510969907184
0.29660477092375509001
0.29511068662352946124
0.11247124595894505972
0.13462965637333051960
0.13557332767526752981
0.17894647720210149489
0.17989014850403850510
0.15678806678771600724
0.18177749110791249776
0.15867540939159002766
0.18083381980597551530
0.15773173808965301745
0.47559886677974494429
0.48789340738871556091
0.50035059893984434876
0.51248248860665679416
0.52493968015778558200
0.50018794799768617754
0.54985406326004315769
0.52510233109994375322
0.53739687170891436985
0.51264513954881496538
0.24908947460516722705
0.22665214677274897470
0.22570847547081199225
0.20421481894033072235
0.20327114763839373990
0.20232747633645675744
0.46267768018216731685
0.47450822574468903836
0.45045573122140436517
0.49816931686973248139
0.47411682234644780820
0.48633877130721075988
0.45006432782316313501
0.46228627678392608669
0.42601183329987846182
0.43823378226064141350
0.56249743597111168114
0.54999829064740779483
0.57499829064740781703
0.52500000000000002220
0.55000000000000004441
0.53749914532370390852
0.59999999999999997780
0.58749914532370395293
0.57499999999999995559
0.56249914532370393072
0.44169069207584987780
0.41707105022707252617
0.43175785375103586938
0.39245140837829517455
0.40713821190225851776
0.42182501542622186097
0.36783176652951787844
0.38251857005348116614
0.41189217710140779705
0.39720537357744450935
0.56258043541501723261
0.57516428953521869794
0.55008761435519526461
0.60033199777562173960
0.57525532259559830628
0.58774814365542016326
0.55017864741557487296
0.56267146847539684096
0.52510197223555143964
0.53759479329537329662
0.51109050346731010883
0.49925995790478838732
0.52401169006488779178
0.48742941234226666580
0.53693287666246547474
0.51218114450236607027
0.42422768815245337493
0.40676468422905687206
0.39960804630367602330
0.38930168030566036919
0.38214504238027957594
0.37498840445489867168
0.56247354688893780317
0.55001635533780901532
0.57509303051783244864
0.53755916378668022748
0.58771251414672709412
0.56263583896670366080
0.02251485457685098099
0.04485714563750662492
0.04502970915370196198
0.08954172775881791280
0.08971429127501324985
0.06719943669816226539
0.09005941830740392395
0.06754456373055293950
0.08988685479120858690
0.06737200021435760244
0.48404966067126187212
0.46993000447279120735
0.45999716614797714342
0.45581034827432054257
0.44587750994950653416
0.43594467162469252575
0.15884797290778535084
0.13591845470765820392
0.13574589119146285299
0.11298893650753105700
0.11281637299133573382
0.11264380947514038289
0.29162961929133590644
0.31670758777750551705
0.31173243614508627797
0.36686352474984473826
0.36188837311742549918
0.34178555626367512765
0.35193806985258707654
0.33183525299883664950
0.35691322148500626010
0.33681040463125588857
0.28303034513242747439
0.25771713162629872329
0.28015445945871697564
0.23240391812016997219
0.25484124595258822454
0.27727857378500647689
0.20709070461404122110
0.22952803244645947345
0.27440268811129597815
0.25196536027887772580
0.61259783944527068655
0.62519567889054128429
0.60009698476897455066
0.65039135778108247976
0.62529266365951574613
0.63779351833581188203
0.60019396953794901250
0.61269482421424514840
0.57509527541638227888
0.58759613009267841477
0.61284683777698689688
0.60026298365678543156
0.62536167777835216519
0.58767912953658385522
0.63787651777971732248
0.61277782365815058885
0.29450550496504634967
0.33471113867254720375
0.31748420749250727546
0.31460832181879677671
0.30025727631246734717
0.29738139063875690393
0.40157314532674481811
0.41903614925014132098
0.43130761427122571439
0.45396215709693427121
0.46623362211801866462
0.43649915317353776834
0.49077655216018750695
0.46104208321570661067
0.47850508713910311354
0.44877061819462216175
0.52358660309130855559
0.53650778968888612752
0.54900388931288457428
0.56235016288404149343
0.57484626250803994019
0.54942897628646392150
0.59983846175603661166
0.57442117553446059297
0.58734236213203827592
0.56192507591046225723
0.06754456373055293950
0.04502970915370196198
0.04502970915370196198
0.00000000000000000000
0.00000000000000000000
0.02251485457685098099
0.00000000000000000000
0.02251485457685098099
0.00000000000000000000
0.02251485457685098099
0.44139709670529270191
0.41903233999211630945
0.42400749162453549301
0.39666758327893991698
0.40164273491135910055
0.40661788654377828411
0.37430282656576352451
0.37927797819818270808
0.38922828146302113073
0.38425312983060189165
0.57514166662355936666
0.58776115025245401213
0.60042926998707557562
0.61300011751024330309
0.62566823724486486658
0.60038063388134865761
0.65100447671410799355
0.62571687335059178459
0.63833635697948643006
0.61304875361597022110
0.18099533698899350487
0.15826135731859611311
0.18119087551872326003
0.13552737764819872135
0.15845689584832586827
0.18138641404845301519
0.11279339797780132959
0.13572291617792847651
0.18158195257818277035
0.15865243437805559568
0.41896275040750197149
0.47843168829646376405
0.46608682443274007667
0.44869721935198292329
0.45374196056901638929
0.43635235548825918039
0.51027203028061884904
0.52237474369150527220
0.49615237408214823978
0.54658017051327800750
0.52035780090392091957
0.53447745710239158434
0.49413543129456394265
0.50825508749303460743
0.46791306168520691022
0.48203271788367757500
0.25752159309656896813
0.23201284106071048963
0.23220837959044021703
0.20650408902485201112
0.20669962755458176629
0.20689516608431149369
0.63821297297459023135
0.62542146923507235812
0.61292536961107391136
0.61262996549555448489
0.60013386587155614915
0.58763776624755781341
0.62500000000000000000
0.64999999999999991118
0.63759783944527059774
0.69999999999999995559
0.68759783944527064214
0.67499999999999993339
0.67519567889054121768
0.66259783944527050892
0.66279351833581179321
0.65019567889054119547
0.55989474332396760303
0.54779202991308129089
0.57320931613465730958
0.53568931650219497875
0.58652388894534701613
0.56110660272377099744
0.50472745674846009045
0.49245599172737569704
0.51867836133673272947
0.48018452670629130363
0.53262926592500536849
0.50640689631564828055
0.62555214454186747197
0.63806698454323274028
0.65077229130811331537
0.66309666454596305485
0.67580197131084362994
0.65058182454459789756
0.70121258484060489113
0.67599243807435915876
0.68850727807572420502
0.66328713130947847265
0.31070916179216162556
0.32793609297220149834
0.33838797845189577673
0.36238995533228135493
0.37284184081197557781
0.34516302415224142663
0.39374561177136407908
0.36606679511162992791
0.38329372629166980069
0.35561490963193564951
0.68866055780898061123
0.67610853077735644234
0.66344041104273487885
0.66355650374573227346
0.65088838401111059895
0.63822026427648914648
0.08941790194262567992
0.06706342645696926341
0.08957828103382023399
0.04470895097131283996
0.06722380554816381748
0.08973866012501480194
0.02235447548565641998
0.04486933006250740097
0.08989903921620936988
0.06738418463935838543
0.42948422547181053233
0.41757135423832836274
0.40711946875863413986
0.40565848300484619315
0.39520659752515197027
0.38475471204545774739
0.15810097822740154516
0.13520661946580958546
0.13536699855700415340
0.11231226070421762575
0.11247263979541219370
0.11263301888660676164
0.46749341935308585949
0.47983828321680954687
0.49358974200087896156
0.50452801094425692163
0.51827946972832639183
0.49218314708053323425
0.54578238729646522120
0.51968606464867206363
0.53203092851239586203
0.50593460586460270445
0.25804009005242428687
0.23877890178656657749
0.26428765382242508375
0.21951771352070889587
0.24502646555656737437
0.27053521759242588063
0.20025652525485121425
0.22576527729070969275
0.27678278136242667751
0.25127402932656817125
0.70216142416259186287
0.67658068356095313334
0.68937218730047089554
0.65099994295931429278
0.66379144669883216601
0.67658295043834992821
0.62541920235767545222
0.63821070609719332545
0.66379371357622896088
0.65100220983671119868
0.71272854444567668164
0.72545708889135340769
0.70032638389094725717
0.75091417778270697081
0.72578347278230093131
0.73818563333703024476
0.70065276778189478080
0.71305492833662409424
0.67552206278148863028
0.68792422333621794373
0.71363798307613035554
0.70093267631124978045
0.72606338131165593097
0.68822736954636920537
0.73848877954718150640
0.71335807454677535588
0.51765394449014501266
0.53160484907841765168
0.54453133682010257388
0.55950665825496292971
0.57243314599664785192
0.54555575366669029069
0.59828612148001758531
0.57140872915006002408
0.58535963373833266310
0.55848224140837521290
0.29867153140358326802
0.32635034806331741919
0.31431271767473900614
0.38170798138278572154
0.36967035099420730848
0.35402916472305157036
0.34559509021705059340
0.32995390394589479977
0.35763272060562895094
0.34199153433447315731
0.57271887304400492802
0.58603344585469452355
0.59885757557473184853
0.61266259147607382562
0.62548672119611103959
0.59934801866538411907
0.65113498063618557854
0.62499627810545876905
0.63831085091614836458
0.61217214838542144406
0.53140540327421448286
0.58516018793412949428
0.57203425438824140326
0.55828279560417204408
0.55890832084235331223
0.54515686205828384203
0.32370634017589400289
0.30181759013473741238
0.30806515390473820926
0.27992884009358087738
0.28617640386358167426
0.29242396763358247114
0.06706342645696926341
0.04470895097131283996
0.04470895097131283996
0.00000000000000000000
0.00000000000000000000
0.02235447548565641998
0.00000000000000000000
0.02235447548565641998
0.00000000000000000000
0.02235447548565641998
0.75221824606867659924
0.72691480373003447557
0.73946683076165864446
0.70161136139139235190
0.71416338842301652079
0.72671541545464068967
0.67630791905275011722
0.68885994608437439712
0.71396400014762284592
0.70141197311599856601
0.66389159151778720513
0.65106746179774988015
0.67664820239938872071
0.63824333207771266618
0.68940481328099023628
0.66382407267935150674
0.45493245058130005187
0.46846780445730734632
0.44301957934781788229
0.49553851220932199073
0.47009028709983252670
0.48200315833331464077
0.44464206199034306266
0.45655493322382523225
0.41919383688085354311
0.43110670811433571270
0.53322141852467941359
0.52066044975289360597
0.50712509587688625601
0.50809948098110779835
0.49456412710510044839
0.48102877322909315394
0.11338234121626897255
0.13627669997786090450
0.13734678048991225130
0.18206541750104482391
0.18313549801309614296
0.15917105873945286421
0.18527565903719880880
0.16131121976355553005
0.18420557852514746200
0.16024113925150418325
0.71467562963911301921
0.70188639277699205188
0.72718983511563428657
0.68909715591487108455
0.73970404059215544290
0.71440059825351331924
0.58564536078568985022
0.63792276584714358023
0.62471055105810158192
0.61178406331641665972
0.61149833626905958361
0.59857184852737477243
0.23984898229861792429
0.22165787454481156171
0.22058779403276024267
0.20346676679100517138
0.20239668627895385233
0.20132660576690253329
0.76318563333703015594
0.75045708889135342989
0.77545708889135345210
0.72499999999999997780
0.75000000000000000000
0.73772854444567670384
0.79999999999999993339
0.78772854444567674825
0.77499999999999991118
0.76272854444567672605
0.76367816076069416908
0.77644214373868147838
0.75125276252516870468
0.80197010969465587493
0.77678072848114310123
0.78920612671666867666
0.75159134726763032752
0.76401674550315590295
0.72640196605411766484
0.73882736428964312925
0.40687481099413080887
0.42000401021689748315
0.39483718060555239582
0.44626240866243088723
0.42109557905108585540
0.43313320943966415744
0.39592874943974076807
0.40796637982831912561
0.37076191982839568073
0.38279955021697403827
0.76465621197517141816
0.75190479666815346338
0.77709417788166623708
0.73915338136113550860
0.78953214378816105601
0.76434276257464828230
0.61122303455021498308
0.62415994762041238086
0.59809710100432689206
0.65003377376080717642
0.62397092714472168762
0.63709686069060977864
0.59790808052863619881
0.61103401407452428984
0.57184523391255071001
0.58497116745843880103
0.43232303610362027291
0.48321948632259920098
0.47090046043587641122
0.45777126121310973694
0.45858143454915367698
0.44545223532638694719
0.08097459964879695493
0.06073094973659771967
0.08308542522225413618
0.04048729982439847747
0.06284177531005490092
0.08519625079571131743
0.02024364991219923873
0.04259812539785565871
0.08730707636916849868
0.06495260088351208216
0.33332515421367053809
0.32105521821029048279
0.31143640417251394759
0.29651534620353042770
0.28689653216575389250
0.30878528220691048300
0.27727771812797735729
0.29916646816913394780
0.26765890409020082208
0.28954765413135741259
0.15920039419009834880
0.13312512934299788880
0.13523595491645507005
0.10704986449589742881
0.10916069006935461005
0.11127151564281179130
0.75393197745429219037
0.72823272824976559292
0.74098933913136710849
0.70253347904523888445
0.71529008992684040003
0.72804670080844202662
0.67683422984071217599
0.68959084072231380258
0.71510406248551694475
0.70234745160391542917
0.24946779633639445950
0.26870542441194755767
0.24089550262036463213
0.25908661037417102246
0.21308558082878170659
0.23127668858258809692
0.55890953010197907957
0.57203667290749304897
0.54634856133019327196
0.59829095851852098775
0.57260284694122121074
0.58516381571300701836
0.54691473536392143373
0.55947570413570724135
0.52122662378662165672
0.53378759255840746434
0.80294545420849561257
0.77774944669701961963
0.79026365217354088699
0.75255343918554373772
0.76506764466206489406
0.77758185013858605039
0.72735743167406785581
0.73987163715058901214
0.76490004810363132481
0.75238584262711016848
0.66442539060419680830
0.67771580057220814908
0.65121317581515492101
0.70429662050823071962
0.67779399575117738053
0.69100621054021948986
0.65129137099412415246
0.66450358578316615077
0.62478874623707092439
0.63800096102611281168
0.63709806995023554599
0.62416236613966402658
0.61103522333415005718
0.61122666232909250716
0.59809951952357853777
0.58497237671806456838
0.81289599372524601328
0.82579198745049198216
0.80062453817092271713
0.85158397490098403093
0.82641652562141476590
0.83868798117573795103
0.80124907634184550087
0.81352053189616868600
0.77608162706227623584
0.78835308261659942097
0.78884561004026343412
0.83918050859940196418
0.82677704229782000844
0.81401305931983269915
0.81437357599623794169
0.80160959301825074341
0.79069208501994481253
0.77843871583139390147
0.76549607750846881959
0.76618534664284299041
0.75324270831991801955
0.74030006999699282666
0.63772565930726821115
0.69073090882137488933
0.67716519713451894802
0.66422828406432155024
0.66359948544766300671
0.65066257237746571995
0.39712770471586927856
0.38424455109116462115
0.40941138070250970848
0.37136139746645990822
0.39652822707780499556
0.42169505668915008290
0.35847824384175525081
0.38364507345310033815
0.43397873267579045731
0.40881190306444542548
0.81455097619319771773
0.82713184269173956054
0.80211301028670289881
0.85229357568882313512
0.82727474328378658441
0.83971270919028140334
0.80225591087874992269
0.81469387678524474161
0.77723707847371326096
0.78967504438020807989
0.37197461508778456585
0.34682152545969985313
0.35909146146307990843
0.32166843583161514042
0.33393837183499519572
0.34620830783837519551
0.74152313821777682268
0.72911429898126145499
0.71582388901325022523
0.71670545974474608730
0.70341504977673485755
0.69012463980872351677
0.00000000000000000000
0.00000000000000000000
0.02024364991219923873
0.00000000000000000000
0.02024364991219923873
0.04048729982439847747
0.00000000000000000000
0.02024364991219923873
0.06073094973659771967
0.04048729982439847747
0.50862580299412407658
0.52171309377892616244
0.49630677710740128683
0.54788767534853033414
0.52248135867700540302
0.53480038456372824829
0.49707504200548058293
0.50939406789220331717
0.47166872533395576284
0.48398775122067849708
0.83995654531874119897
0.82761951494865937384
0.81493771291370464827
0.81528248457857754872
0.80260068254362271212
0.78991888050866798654
0.17550611098482410410
0.16573656293244939941
0.14943084613772364411
0.14619746682769999002
0.12989175003297423472
0.15596701488007469472
0.11358603323824847942
0.13966129808534893941
0.09728031644352272411
0.12335558129062318411
0.56048849614102791428
0.54740120535622582842
0.57308931693352560544
0.53431391457142374257
0.58569013772602329659
0.56000202614872351958
0.28386693066852752843
0.27121851513352468466
0.25605700887694465839
0.24592168406351899712
0.23076017780693894310
0.25857009959852184089
0.21559867155035888908
0.24340859334194178687
0.20043716529377886282
0.22824708708536176061
0.82499999999999995559
0.84999999999999986677
0.83789599372524592447
0.89999999999999991118
0.88789599372524596888
0.87499999999999988898
0.87579198745049202657
0.86289599372524594667
0.86368798117573808426
0.85079198745049200436
0.66249210074007058857
0.67495042771933388970
0.64955639692949895814
0.69986708167786071400
0.67447305088802578243
0.68740875469859730185
0.64907902009819085087
0.66201472390876237029
0.62368498930835591931
0.63662069311892743873
0.19066761724140413037
0.22099062975456423841
0.19605957544560947969
0.20582912349798418439
0.17112852113665472098
0.18089806918902945343
0.82706871702323692119
0.83947218332481898795
0.85216732435181796745
0.86427911592798301044
0.87697425695498198994
0.85187564962640105470
0.90236453900897994895
0.87726593168039901371
0.88966939798198096945
0.86457079065339992319
0.83964958352177876399
0.88984679817894074549
0.87732905734890154203
0.86474819085035981026
0.86481131651886233858
0.85223045002032060680
0.67540078664313951684
0.68896649832999534713
0.70076779952547174624
0.71609792170370711872
0.72789922289918351783
0.70253221001685117741
0.75150182529013631605
0.72613481240780397563
0.73970052409465991694
0.71433351121232768755
0.49811215157717431135
0.47286603986184805315
0.48514971584848842756
0.44761992814652179495
0.45990360413316222488
0.47218728011980259929
0.42237381643119553676
0.43465749241783591117
0.45922484439111677101
0.44694116840447634109
0.81262782945222733488
0.82231020469595916822
0.80037446026367653484
0.84167495518342272387
0.81973921075114009049
0.83199257993969100156
0.79780346631885745712
0.81005683550740825716
0.77586772188657482374
0.78812109107512573480
0.51055603252001335868
0.49759359679132747489
0.52299991346285235050
0.48463116106264159111
0.53544379440569134232
0.51003747773416652223
0.81781713158756141890
0.78943700381772874408
0.80184584305424411177
0.76105687604789606926
0.77346571528441143695
0.78587455452092680463
0.73267674827806339444
0.74508558751457876212
0.76990326598760949750
0.75749442675109412981
0.38484565319722885413
0.37256360167858837418
0.35969256356914414141
0.34799949864130752530