VARIABLES = "X", "Y", "P", "U", "V", "divergence", "vorticity"
ZONE NODES=7555, ELEMENTS=14672, DATAPACKING=BLOCK,
VARLOCATION=([6]=CELLCENTERED), ZONETYPE=FETRIANGLE
0.00000000000000000000
0.01666110876802519292
0.00000000000000000000
0.03332221753605038583
0.01666110876802519292
0.00000000000000000000
0.06662295551199261257
0.05004888742925160672
0.04997258652402149920
0.03347481934651059393
0.03339851844128048641
0.00000000000000000000
0.00000000000000000000
0.01673740967325529697
0.01673740967325529697
0.02545143957090383394
0.05090287914180766787
0.04211254833892902338
0.10153369339739681809
0.09278997044028128305
0.07621828626960223951
0.08404624748316574800
0.06747456331248670447
0.07533460149757917335
0.05868423250960806692
0.07070679169122992547
0.07479062787046723837
0.05413272360848891962
0.08313476877607679782
0.06231840161806803668
0.07896269832327201810
0.04150203446005927554
0.05814633116526325696
0.02075101723002963777
0.03748842690328493821
0.08722293085396684575
0.09593457683955340654
0.10782290619594106507
0.11332760506107850129
0.12512151672476018449
0.10458388210396296625
0.14920371696058343236
0.12851331157826223484
0.13716261684267180843
0.11647221146035062478
0.09130676703320414478
0.13275941500312771204
0.11631511304567201948
0.11206900962080654227
0.09972494091087441559
0.09555287045806962198
0.06243167255513880354
0.04172857633420080231
0.04161530539713004240
0.00000000000000000000
0.00000000000000000000
0.02086428816710040116
0.00000000000000000000
0.02086428816710040116
0.00000000000000000000
0.02075101723002963777
0.12686571298997567636
0.15219773258255456239
0.13865962465365738732
0.20283251069008773060
0.18935837187740356402
0.17751512163632116037
0.17588423306471939744
0.16404098282363699379
0.16254397501265141490
0.15050287489473979097
0.11039809572496214751
0.12698826785975975140
0.13766142267384748332
0.15992263920585275683
0.17064156145112205354
0.14347833724839703651
0.19240183855244349931
0.16503163061314549132
0.18152170000178277642
0.15415149206248476843
0.08531991059001396704
0.08750505240395113626
0.06461681436907597276
0.09191904808761180989
0.06887821786152194259
0.08971205024578146614
0.04583738763543208222
0.06667122001969161271
0.02291869381771604111
0.04378298198481644227
0.11258323753889931673
0.16737091858788005760
0.14233999862331664366
0.14000071064858204961
0.11712952335546422677
0.11492252551363388302
0.21481861138803803879
0.22680471208598831923
0.20134447257535387221
0.25147823213401360176
0.22594763677739776453
0.23914147211000097437
0.20041704142078195505
0.21361087675338513714
0.17481037919068270758
0.18815063724275066237
0.20726184365013125555
0.19638170509947053266
0.22212184874781901178
0.18552930143595200430
0.23680004044091629289
0.21126944508430048342
0.06900570037033351700
0.04609235265305523799
0.04596487014424366357
0.00000000000000000000
0.00000000000000000000
0.02304617632652761899
0.00000000000000000000
0.02304617632652761899
0.00000000000000000000
0.02291869381771604111
0.22804417595715287259
0.25325584122421801458
0.24003027665510318078
0.30337861802648286025
0.29027871352787587567
0.27831722962535043742
0.27717880902926889108
0.26521732512674345283
0.26432852058164124642
0.25199176055762861903
0.18457265018226109987
0.16137320916943098670
0.18663590587419537359
0.13817376815660087352
0.16343646486136526041
0.18869916156612967506
0.11504640812210634171
0.14025688338995875859
0.19055050005928658718
0.16551958009472317324
0.26585907290670696135
0.28023991367940032093
0.25118088121360965248
0.30936159489057402094
0.28025065223731043806
0.29480075428498719869
0.25113970958404685518
0.26568981163172356030
0.22177077406824519112
0.23663077916593294736
0.09200399606132492192
0.06898774506811584939
0.09205278074319170334
0.04597149407490676992
0.06903652974998261693
0.09210156542505847088
0.02298574703745338496
0.04603192336398100049
0.09201030675633514733
0.06909695903905685443
0.16149569224934701150
0.13841873431643295089
0.13829625123651689833
0.11521136518887893641
0.11526014987074570395
0.11513766679082967914
0.20796804797662246655
0.21003130366855676803
0.23136344577098383324
0.21372017212858346324
0.23503850570472339943
0.21186883363542652337
0.27765854738920986433
0.25451099658009684878
0.25634852654696660412
0.23320097573785361633
0.28571587065488590618
0.26440584981264264597
0.29377319392056189251
0.24308910764438512730
0.30156739440556795673
0.27245645175230437385
0.27735890557310505233
0.29020919402073264148
0.30323957901219644739
0.31596187989934865215
0.32854514177221444404
0.30286197540074166756
0.35465029427939653850
0.32894493664579649295
0.34159771802580551903
0.31589236039220547347
0.29173974634579835641
0.34337773356253342705
0.33210517284567031560
0.31767237592893338149
0.32073338386812216827
0.30617254326253529051
0.06901967327237043537
0.04603535048341595576
0.04600342227916136284
0.00000000000000000000
0.00000000000000000000
0.02301767524170797788
0.00000000000000000000
0.02301767524170797788
0.00000000000000000000
0.02298574703745338496
0.18386350641126111838
0.16089577345568462086
0.18411152624428722691
0.13792804050010815109
0.16114379328871075714
0.18435954607731336319
0.11496601828071653650
0.13817338740827056487
0.18446609812978723153
0.16138914019687317092
0.36648633877010333704
0.35343376251651226205
0.37832238326081013557
0.32829225153317054264
0.35320588503985816953
0.34087551340603627903
0.40280304106266945352
0.39056271216173976679
0.37800446305126378377
0.36576413415033415255
0.20606589882238784961
0.22946129661674924405
0.22755914746251462710
0.27602131717783356946
0.27438408696645727458
0.25287376636872055391
0.27063889850626132727
0.24909902298438796331
0.27251149273635932868
0.25097161721448596472
0.30092239928139896676
0.30897972254707495310
0.32418625117358801369
0.32457495876709341331
0.33978832264361286120
0.31678075828208740461
0.37051327241601106355
0.34734976179479953862
0.35515079752981193462
0.33198728690860046520
0.20559034148457708269
0.20583836131760319121
0.22731717655789304700
0.20595934676991400902
0.24897803753207720101
0.22743816201020383705
0.41072290756992724248
0.38542916999969378811
0.39657264171022432730
0.36013543242946027823
0.37127890413999087293
0.38242237585052146764
0.33474851366001712183
0.34612030263756532467
0.36853633506495897532
0.35726377434809586386
0.09213864831730704530
0.09227330057328916868
0.06915432552835255875
0.09243696418772090473
0.06934456128578223022
0.09235513238050503670
0.04625215838384356265
0.06926272947856636220
0.02312607919192178133
0.04614375443362975920
0.16101148652824714969
0.13815946664523315324
0.13804375357267065216
0.11529821541647702898
0.11521638360926116096
0.11510067053669865988
0.38067715963355097664
0.36531468474735184770
0.39084104685109088972
0.34996187753653656971
0.40078197721050906610
0.37548823964027555622
0.41545381365638200943
0.42810458625009462086
0.40321348475545237822
0.45460633856545790143
0.42966594021839898954
0.44135546240777623339
0.40472554187134013315
0.41641506406071737700
0.37968791807536833582
0.39152396256607513436
0.28805242517780271783
0.28992501940790071924
0.30546595184934416389
0.29314783007422695604
0.30863711275924404775
0.29151059986285066117
0.33980578980124470645
0.32263587082529443517
0.32422145128024437710
0.30705153230429410582
0.34760360237049514609
0.33201926384949476123
0.35540141493974553022
0.31641168196641600296
0.36295734367787829688
0.33979383305666677195
0.42171180128081120486
0.40756153542110828969
0.43270069499169516725
0.39357395886093082815
0.44365351677857656210
0.41871311843151765020
0.27941756005481149794
0.25549297762101025322
0.27725759994857124280
0.23156839518720903626
0.25333301751476999808
0.27509763984233093215
0.20771595079923507732
0.22944278587255104163
0.27286826917429612971
0.25120740820011200345
0.00000000000000000000
0.02312607919192178133
0.00000000000000000000
0.06930942402623774257
0.04618188386475457347
0.04621702112429906806
0.00000000000000000000
0.00000000000000000000
0.02309094193237728673
0.02309094193237728673
0.11605577577766788833
0.13891702700642399870
0.13967458736761487192
0.18464982874075414054
0.18543615107024719046
0.16179780885774017185
0.18691705835839689254
0.16329582286300586835
0.18617660471432204150
0.16255536921893104507
0.42750497310251889260
0.45220690514236827617
0.44015574569623144852
0.50144812032568009119
0.48947136969689730712
0.47682751273402418368
0.47749461906811457856
0.46485076210524145512
0.46605047881678624000
0.45279960265910457196
0.20850227312872809948
0.25626652215419903902
0.23311548425358658010
0.23234193972039779430
0.21001627130599173632
0.20927581766191688528
0.39465808619249376221
0.40482197341003367530
0.41880289996897640536
0.42470666465077866469
0.43869042173163003140
0.41476573429136043281
0.46714288613225724012
0.44297289305061682274
0.45291665393194363576
0.42874666085030321838
0.29326614533327977075
0.31067967200482116130
0.31589339216029815871
0.34525398071678237155
0.35070217163231998114
0.32808406174083204476
0.36135833306882636506
0.33862586261456228964
0.35603025235057317310
0.33329778189630909768
0.29549551600131451767
0.34090844478807780238
0.32045855650732918418
0.31817597433381367145
0.29993805828107034106
0.29777809817483003041
0.43571353853487848617
0.44670243224576244856
0.46070416949982967436
0.46839834505688765498
0.48219035154831740853
0.45744552327000631564
0.51054626053358043158
0.48562521501670508073
0.49636830604094894781
0.47144726052407354144
0.38312010212621372407
0.39572693183641638459
0.37556417338808095741
0.42115587605797305537
0.40076420397018552855
0.40844140394719474774
0.38037253188239794621
0.38804973185940716540
0.36008916084182129858
0.36788697341107173822
0.02342241960450658009
0.04651336153688386682
0.04684483920901316018
0.09274422350864378051
0.09305148282956665629
0.06961668334716061834
0.09368528643036111436
0.07026506281968714074
0.09336838462996388532
0.06994816101928991170
0.45581101612593100114
0.44447914611960470666
0.43164102304429052825
0.43281751108878885326
0.42010303897801054562
0.40726491590269642273
0.44969729561572985288
0.49982564954011099445
0.48910503854664161283
0.47490460402323564360
0.47812396233944942647
0.46389773013913582211
0.11697023302489110985
0.11665333122449388081
0.14025517961942110534
0.11636303509859076410
0.16358611898890901282
0.13996488349351798863
0.51412067316121590199
0.52679322599675171279
0.50214392253243311792
0.55360283799575515928
0.52889422717633061133
0.54019803199625338053
0.50418561635690595235
0.51548942117682883257
0.47939597746118189914
0.49084011771251023770
0.37648671129261324086
0.37115863057436004890
0.39161508951640017218
0.36553735175735896368
0.40638548278718661377
0.38599381069939908695
0.28546859733662127701
0.26077284213462448292
0.28395364166616560153
0.23607708693262768884
0.25925788646416880745
0.28243868599570992606
0.21149707264551229069
0.23459628559310713447
0.28092812302526071200
0.25777708512464825308
0.52127963157309120668
0.50710167708045972290
0.53201300261260198177
0.49318798395261165268
0.54280792030417857053
0.51809930948475391155
0.36915507420065862831
0.37695181533249089156
0.34870518591991006563
0.39206059965043504878
0.36389754255631823199
0.38450620749146297017
0.33573448546220135968
0.35634315039734609787
0.30757602275850642881
0.32809652098476527193
0.00000000000000000000
0.00000000000000000000
0.02340216129582281882
0.00000000000000000000
0.02340216129582281882
0.04680432259164563763
0.00000000000000000000
0.02342241960450658009
0.07024480451100337253
0.04682458090032939890
0.30908658572895564287
0.36542404380299664535
0.33878748795555829743
0.33726098670887982856
0.31212804264608978722
0.31061308697563411174
0.11793656973671905186
0.14122151633124904735
0.14218785304307698936
0.18784986117219615309
0.18878266398599538589
0.16451892180270824562
0.19082838053411008139
0.16650811678859353537
0.18980552226005273364
0.16548525851453618762
0.49259170308617628020
0.50357277929336841105
0.51804052004009526478
0.52495999577490293220
0.53937373101622554383
0.51423938478143360609
0.56885283427301736037
0.54344667715655625706
0.55411328264462145210
0.52870712552816034879
0.26173639776769197507
0.23800419819876270089
0.23704064256569518099
0.21441628936643639114
0.21339343109237904339
0.21242987545931152349
0.48089908001668063564
0.49465527390110403116
0.46956721001035439667
0.52234448451977899541
0.49702839143004495792
0.50849987921044148553
0.47171229834031097594
0.48318378612070750355
0.44643408719914201566
0.45809572222995786905
0.56473459966704897539
0.55132979366754719663
0.57586636133834268048
0.52598930077284777873
0.55053048122001557729
0.53866185360838358953
0.59946631914210402048
0.58766634024022335048
0.57499840018105974337
0.56319842127917918440
0.46614170380467961907
0.43992487171566974080
0.45504824766803914082
0.41370803962665980702
0.42883141557902926255
0.44395479153139866257
0.38753318634774308604
0.40266156457153001735
0.43255533379468585897
0.41778494052389941738
0.56769139490732223319
0.58177995181888930709
0.55689647721574564443
0.61099611297107203622
0.58591232102947921057
0.59638803239498061615
0.56082852908788638491
0.57130424045338790151
0.53568739481073346376
0.54642076585024423885
0.53421596020178019337
0.52037135489244268349
0.54608743588378139133
0.50634789697059967573
0.55747013507839937585
0.53206397796193827254
0.44771281600866408290
0.42928392821264849122
0.42149598391965414912
0.41067226393154177000
0.40311787177256969139
0.39532992747957534929
0.57949326062898465217
0.56475370900058874390
0.59013368698495183295
0.55010113005205596437
0.60056489997801199010
0.57548110803641905342
0.02359761357554164551
0.04699977487136446086
0.04719522715108329103
0.09387224820118308943
0.09405920997200506450
0.07043176628182534760
0.09457757034515333616
0.07088639874811830666
0.09431839015857920727
0.07062721856154417777
0.50859744262582562424
0.49485040073187225307
0.48328134953609158675
0.48049605226827596383
0.46940259613163548558
0.45783354493585481926
0.16676060334500067417
0.14269282615589126695
0.14244033959948412815
0.11863519825052229462
0.11837601806394816573
0.11812353150754102693
0.30686075622135283725
0.33352020153082134746
0.32825291510608439749
0.38669982207437525457
0.38133904449831551586
0.36006326622693690664
0.37101145164659821152
0.34963218337634127675
0.37617524807245683593
0.35479597980219995668
0.29858779975748400703
0.27150870073698113449
0.29517066124630619850
0.24442960171647826195
0.26809156222580332596
0.29175352273512838996
0.21762899112529415779
0.24121689995762046754
0.28861106003587483348
0.26487886046694553155
0.61222898913012691047
0.62499165911814980046
0.60042901022824624047
0.65227169655626648925
0.62763689470871164566
0.63863167783720808934
0.60300209286115680207
0.61399687598965324575
0.57830246542845598068
0.58943422709974968576
0.62123070984859940502
0.60662262927250809597
0.63146530672612688484
0.59239102234002305458
0.64186850164119668705
0.61723369979364184346
0.31000321892060639373
0.35289261973313335030
0.33477378781966848909
0.33151335146287641553
0.31668079378857627582
0.31326365527739841177
0.42377836088914255797
0.44239002517024927918
0.45549612212785006715
0.47951088027897570409
0.49288005675327178912
0.46108199248296011241
0.51949773910020546897
0.48749693061402776806
0.50618889792673860129
0.47418808944056090038
0.54908859946238375294
0.56096007514438483987
0.57583271440498839944
0.58391043985172141895
0.59896804543042558855
0.57252774065710343443
0.62944793633050311055
0.60264032536774569948
0.61420799088046429404
0.58740037991770699399
0.07094046248549629174
0.04730335462583924039
0.04724929088846126224
0.00000000000000000000
0.00000000000000000000
0.02365167731291962019
0.00000000000000000000
0.02365167731291962019
0.00000000000000000000
0.02359761357554164551
0.46644955732151005545
0.44247557470031895210
0.44767399943425334463
0.41850159207912779324
0.42370001681306224128
0.42889844154699668932
0.39475652186286303014
0.39992031828872165455
0.41047952059871584130
0.40511874302265610259
0.59476794032203095242
0.60540836667799813320
0.62068304637104454446
0.62614701366885916478
0.64129791436664629334
0.61571580067579900764
0.67254784308364523593
0.64661544472734489020
0.65692287872514576463
0.63099048036884541890
0.19100296155417073596
0.16681253339246593370
0.19087908510665019257
0.14262210523076113144
0.16668865694494539031
0.19075520865912964918
0.11859983778795724074
0.14265746569332621307
0.19079179459661987917
0.16672401740751047194
0.44219728183742335048
0.50618300043882080708
0.49286826177743625621
0.47418219195264316168
0.47965890954947315583
0.46088335166221650052
0.53645516182988806086
0.55056583913999712632
0.52270811993593468969
0.57839949582821070795
0.55026227502067837083
0.56448266748410391713
0.52212505421314603371
0.53634544667657158001
0.49413337900891285415
0.50848772747250914339
0.27169041481073236133
0.24479302986398074338
0.24461131579022948879
0.21789799570907575355
0.21777411926155521016
0.21759240518780395557
0.66204129434899194884
0.65153474561433877277
0.63610889599269171413
0.64049134097242088615
0.62525139552238218066
0.60982554590073512202
0.62387184008890050890
0.64827736103569699733
0.63663451007692339889
0.69701133366932954694
0.68541240254560131806
0.67264434735251321662
0.67381347142187308918
0.66104541622878509877
0.66304258398906978922
0.64940256527001150033
0.59156133053386705800
0.57764450218976026719
0.60472316523952340805
0.56319927677249270737
0.61708555078501325930
0.59027793982225595926
0.53442393828857071014
0.52111509711510384246
0.54935013747693595132
0.50750255548320888366
0.56387481665257332963
0.53573759584504099251
0.63619224226953141610
0.64642683914705878490
0.66138837156799068495
0.66679042121326137504
0.68130914587025626084
0.65638722629819157284
0.71176684164973036406
0.68657760660886046900
0.69653799375999336796
0.67134875871912347289
0.32810424034883989286
0.34619723437993210613
0.35762068094019577869
0.38238210033864938886
0.39375274903070051069
0.36426326842518452764
0.41671174188846571429
0.38716621141433071873
0.40523224545958314025
0.37568671498544814469
0.70204245401791443015
0.69231806638609838522
0.67685321897704453509
0.68243295473487175506
0.66680799037637239479
0.65134314296731843363
0.09457698167709396864
0.07085673619510393650
0.09455588450565724501
0.04713649071311389049
0.07083563902366721288
0.09453478733422052138
0.02356824535655694525
0.04721992266947656891
0.09455617883968692183
0.07091907098002987742
0.45393102541161933772
0.44141249350172867549
0.42995704279042823437
0.42906211769509716714
0.41758262126621459309
0.40612717055491415197
0.16690161499712227733
0.14280026844007381870
0.14271118683541747507
0.11868862505858389367
0.11866752788714717004
0.11857844628249082641
0.49460771522405000411
0.50781706745201304898
0.52276587312658995277
0.53441214883884724518
0.54932655857748902140
0.52109741017746258329
0.57933024329212912118
0.55104805820935953697
0.56432840093480907129
0.53604621585203948708
0.27376035570089501947
0.25305317408395844314
0.27994094477300757173
0.23234599246702189457
0.25923376315607105091
0.28612153384512017951
0.21167447701059632914
0.23856951116550131897
0.29235466680130206552
0.26545728185455047532
0.73788581501787375849
0.71069848278003822095
0.72137580866065287299
0.68351115054220279443
0.69418847642281744648
0.70486580230343198750
0.65647954343635295249
0.66752294807827072809
0.68870682269353866722
0.67820027395888538013
0.70992681204411456353
0.72284229041889958012
0.69832788092038633465
0.75074782789157834539
0.72613384827696569879
0.73679505915523901827
0.70151986866235316320
0.71218107954062637166
0.67689578260930982623
0.68766667004211312619
0.72135025043717837523
0.70612140254744137913
0.73093365922462638640
0.69141450726630471202
0.74084074355810236590
0.71622676394348983031
0.54861842128275517538
0.56354462047112041656
0.57773910346530488180
0.59298415330085008090
0.60756881077348945386
0.57845947412521270259
0.63640147449628980958
0.60707028898079729018
0.62198514263488968723
0.59265395711939716783
0.31563597540096177685
0.34515241599231771819
0.33268415104443960217
0.40430751276724152810
0.39190328364601734190
0.37476198229310653254
0.36715973320689654358
0.34992194212566807288
0.37953150842645694274
0.36229371734522847204
0.60659473954695686260
0.61975657425261321265
0.63478998326570290622
0.64505920536757344053
0.66067047440464388153
0.63269681982208370030
0.69159342884368335547
0.66319170605469313085
0.67613195162416361850
0.64773022883517339388
0.56353283102139695160
0.62210985433525678445
0.60781823417422387035
0.59277866881976437607
0.59357423873317649576
0.57857239637585644587
0.34376683169427546538
0.32037393018165444269
0.32652904061304699468
0.29706714294127473108
0.30324773201338728335
0.30940284244477989084
0.07096410988267379261
0.04735123808825362351
0.04724386440068376047
0.00000000000000000000
0.00000000000000000000
0.02367561904412681176
0.00000000000000000000
0.02367561904412681176
0.00000000000000000000
0.02356824535655694525
0.77685422023058059438
0.75071080778243026721
0.76023621791225703959
0.72456739533428005107
0.73409280546410682344
0.74361821559393359582
0.69855761920896264350
0.70844273086018927366
0.72769252862183197994
0.71796814099001604603
0.70365937440700898620
0.68819789718748936025
0.71572531997033472795
0.67209081247342328247
0.72680556749410429873
0.69961823525626876119
0.48126877539311396781
0.49608799346471788017
0.46875024348322325007
0.52614258233653998786
0.49869336537035724444
0.51111528790062887850
0.47124414840417450101
0.48366607093444619059
0.44397794514632010765
0.45632832095295161601
0.56592081449190034803
0.55251138569167168590
0.53763862940913087485
0.53932698401410583688
0.52429968957819483855
0.50942693329565391647
0.12018611620216863856
0.14429775958365856359
0.14579525072724330848
0.19257815360962710072
0.19415334566508349323
0.16847680705257866984
0.19744077705728768635
0.17161801389226549741
0.19579706136118557591
0.16997429819616338698
0.74789497828847606442
0.73138497193125517892
0.75790414155907837035
0.71471659881885596377
0.76737918089482948236
0.74123576844667926622
0.62117939701959623555
0.67810749923980084830
0.66462156963591834113
0.64970577645081062368
0.65051152206610407536
0.63609519020470384199
0.25470554783260035414
0.23565073996430566106
0.23399836621566377781
0.21654575851079665982
0.21490204281469457714
0.21324966906605269390
0.76120022601900894088
0.74724745728266961375
0.77165262414643964739
0.72137772932337318466
0.74574412497741682238
0.73429320769815820125
0.79458605359518863498
0.78311933887081419670
0.77016508928630278419
0.75869837456192823488
0.76574208780113295347
0.78073634771068767257
0.75583500346765708500
0.81272140289817340619
0.78743737221527698722
0.79672887530443059489
0.76215334153238067927
0.77144484462153417592
0.73696009159105546615
0.74654350037850347732
0.43128637777522760288
0.44586101366198943596
0.41888214865400341669
0.47535179693816681512
0.44826266747515397526
0.46060640530007812554
0.42117353801214113540
0.43351727583706528568
0.39416663560951881173
0.40653841082907926641
0.78587909205393002843
0.76926108973560658466
0.79490396387727957350
0.75288577856315708203
0.80381268338772648985
0.77852865270483007087
0.65067477997542089163
0.66494808545455208471
0.63638315981438797753
0.69335501357976636605
0.66475657328494874854
0.67915154951715916987
0.63615813299013124205
0.65055310922234166338
0.60774418814113018161
0.62198818358217755620
0.45855258103308194073
0.51339765269622439359
0.50065272305590879931
0.48594843573004165016
0.48800225999703783497
0.47325686835894908988
0.08648398319358746589
0.06478953252850327971
0.08850514560995274838
0.04309508186341907965
0.06681069494486854832
0.09052630802631803086
0.02154754093170953982
0.04522315997583635505
0.09255164485170599975
0.06893877305728582372
0.35455620851027103146
0.34195268381364551935
0.33116330699764995327
0.31671804364115446750
0.30594052889700595887
0.32933536372740002118
0.29516301415285750576
0.31855784898325151255
0.28446168492687629037
0.30776847216725600198
0.16973575511131633320
0.14203073316534495230
0.14391299194629414426
0.11425735817946620909
0.11627852059583149158
0.11816077937678066967
0.80487516008575432647
0.77637068350123972227
0.78816795100980807653
0.74786620691672511807
0.75966347442529347234
0.77146074193386182660
0.71972981788020429228
0.73179576344352992301
0.75467327847586784806
0.74359303095209827728
0.26540687705858156953
0.28686219553933456350
0.25700634743751465949
0.27608468079518611038
0.22722356224740117292
0.24632854370091017415
0.59381141779504620359
0.60829259229796317499
0.58040198899481743045
0.63767688426900881460
0.60973715011188345247
0.62298473828348599479
0.58179741595475809035
0.59504500412636063267
0.55396999914564903911
0.56715440082321488813
0.84651880496403408838
0.81920459153829494614
0.82882999893121189761
0.79189037811255580390
0.80151578550547275537
0.81114119289838970683
0.76488809656521472569
0.77489725983581703161
0.79399770656448520612
0.78452266722873398308
0.70728692549446359195
0.72298042214524393945
0.69380099589058108478
0.75366753195348856753
0.72419772844451912874
0.73832397704936625349
0.69472792493554968996
0.70885417354039681470
0.66556469971591969426
0.67967474728573407106
0.67926996688391838575
0.66518492018807029442
0.65067152658910076823
0.65143090222853961002
0.63673875624301667919
0.62222536264404726403
0.80778117499704893412
0.82097629639890934428
0.79631446027267449583
0.84982745517514879374
0.82498992301833529162
0.83540187578702906901
0.80015239086152178949
0.81056434363021556688
0.77545010937655001193
0.78590250750398071844
0.79044436928610473103
0.84026072834840315195
0.83069400152165762119
0.81542319619158964983
0.82170770220991551369
0.80571517461617259137
0.83666274413437480284
0.82680668330471540628
0.80934853070863566060
0.81584092169523492188
0.79913371261928856093
0.78167556002320881525
0.67983800519505088733
0.73859812637730715146
0.72352872080112573538
0.70912832286833771267
0.70844186719044599521
0.69423840312783891004
0.42497351845303765749
0.41047182017403882615
0.43757629168408052056
0.39597012189503993929
0.42307459340508163370
0.45017906491512332812
0.38156492755096826919
0.40857182995359053734
0.46276543092664507162
0.43567630146363223176
0.82947641172392527764
0.84623142054967714909
0.82056769221347836130
0.88173602331327638471
0.85535727733650568361
0.86398372193147676690
0.82897853135973487149
0.83760497595470595478
0.80291637579515773293
0.81194124761850727801
0.39787070490267073541
0.37076789135230381333
0.38336900662367190407
0.34374296749672916818
0.35636028758297466634
0.36896140285434275707
0.79254962746740031942
0.78022409484904631238
0.76404515088288571523
0.76694581340126743996
0.75160225849714512592
0.73542331453098452876
0.00000000000000000000
0.00000000000000000000
0.02167846249433046796
0.00000000000000000000
0.02167846249433046796
0.04335692498866093592
0.00000000000000000000
0.02154754093170953982
0.06492045409112420784
0.04322600342604000778
0.54087565715355623297
0.55560873197057236705
0.52813072751324052767
0.58534086313949307279
0.55779393463267945563
0.57047479755503271992
0.53024700612586583848
0.54292786904821910277
0.50279940153201629904
0.51544986459088737440
0.87322808956232056410
0.86472015581136485451
0.84684934358554986300
0.85561948038769952696
0.83793067435487733619
0.82005986212906223365
0.18744352694914218072
0.17744627684099667508
0.15973850500317082757
0.15713931800770664093
0.13944189860656530655
0.16729279742435165801
0.12174447920542398605
0.14959537802321032363
0.10411423119950571903
0.13188760618538447611
0.59836161775186358369
0.58349555216740323083
0.61138237236423409460
0.56870307396266528421
0.62452962831662151011
0.59658989415949603696
0.30366318641374667742
0.29060832918633888733
0.27380733831192677341
0.26432130573335838042
0.24756088973778178630
0.27746481745984863387
0.23080047374220519218
0.26070440146427203976
0.21412062539974643927
0.24390341058985992584
0.81913712729556320546
0.84368820099593777595
0.83233224869742361562
0.89324890947570989574
0.88178533750040477557
0.86846855523582378034
0.87032176552509965539
0.85700498326051866016
0.86007461035012422457
0.84564903096200449983
0.70716301392259861558
0.72097101426543086511
0.69307796722675063528
0.74909950337670916376
0.72115188912822836276
0.73503525882107001443
0.69320427487974756176
0.70708764457258921343
0.66544057957437818818
0.67919459753390887258
0.20412337529160093363
0.23752193300149304633
0.21072256026962774000
0.22076151700591645222
0.18393093913866720435
0.19408441855531222142
0.83814539128075793428
0.84713169059250015280
0.86356937966334257339
0.86541869915212021880
0.88100994312909164385
0.85585197232537457701
0.91518904708539750015
0.88937921337437009228
0.89809949510724451649
0.87228966139621710862
0.85490040010650991675
0.90682701149604649782
0.89846497590669549549
0.88101717778501908995
0.89010049960998594010
0.87234819822818632229
0.72142594779061919308
0.73651280140129893326
0.74949688200147202011
0.76696704460846865103
0.78026655726344873454
0.75189763903228723496
0.80632518672935593607
0.77791103436541397809
0.79329587199640227979
0.76488171963246043283
0.53414122810541864173
0.50681648384875266355
0.51942588117349264287
0.47949173959208668538
0.49210113691682660919
0.50471053424156653300
0.45223262902256217144
0.46483540225360497899
0.49003116558986670181
0.47744479957834495831
0.86077176303595370754
0.87502472110787343773
0.85091570220629442201
0.90340384322092959213
0.87863122391522907595
0.88921428216440157044
0.85385860460952855977
0.86444166285870105426
0.82936688234764144312
0.84033264395712192751
0.54694461174577746476
0.53222926481385135489
0.55974799538613617678
0.51747877018371624125
0.57254442926281456927
0.54499750075600106314
0.88320253904621182084
0.85048730329109645254
0.86391024621132839201
0.81777206753598119526
0.83119501045621313473
0.84461795337644496318
0.78571979974473493691
0.79899808119251369831
0.82474655673109964482
0.81242102411274563778
0.41234338129065506440
0.39971324412827247130
0.38524056774028814232
0.37428901761989785690