VARIABLES = "X", "Y", "P", "U", "V", "divergence", "vorticity"
ZONE NODES=7555, ELEMENTS=14672, DATAPACKING=BLOCK,
VARLOCATION=([6]=CELLCENTERED), ZONETYPE=FETRIANGLE
0.00000000000000000000
0.01654631797779046454
0.00000000000000000000
0.03309263595558092907
0.01654631797779046454
0.00000000000000000000
0.06617036141260589088
0.04971136166471121914
0.04963149868409340998
0.03325236191681654740
0.03317249893619873824
0.00000000000000000000
0.00000000000000000000
0.01662618095840827370
0.01662618095840827370
0.02527417750640010077
0.05054835501280020155
0.04182049548419056184
0.10082087524777613718
0.09214128200675657243
0.07568461513028816590
0.08346168876573700768
0.06700502188926860114
0.07481602508917145622
0.05827716236065896838
0.07023671266901823640
0.07430306392543059579
0.05377771292112357160
0.08262596031886418335
0.06193204366685327311
0.07846451212214738957
0.04123812701484236287
0.05777059547013647933
0.02061906350742118144
0.03724524446582945514
0.08663072583565950557
0.09527638951222505703
0.10709109025871310639
0.11253529036973217159
0.12424970549168819212
0.10385569712871259296
0.14820139764585887887
0.12764624395228599263
0.13622555156877352855
0.11567039787520064231
0.09069707709207185109
0.13188404131966199873
0.11556668499346513246
0.11132888762608911248
0.09909632265616466484
0.09493487445944787106
0.06205465541506925697
0.04148335051127433060
0.04136073876305834673
0.00000000000000000000
0.00000000000000000000
0.02074167525563716530
0.00000000000000000000
0.02074167525563716530
0.00000000000000000000
0.02061906350742118144
0.12597209490711888669
0.15112331456646163619
0.13768651002907492109
0.20139568920537825880
0.18802643681101816053
0.17625950188591993362
0.17465718441665806226
0.16289024949155983535
0.16142929103125847057
0.14945344495417312025
0.10974475034629672943
0.12621511268359719704
0.13686354037372927550
0.15889837168876236317
0.16959534573166581972
0.14258101536256548303
0.19137093760601156522
0.16411723898987040648
0.18048314166883869247
0.15322944305269753373
0.08482296366810751498
0.08701996701735083273
0.06425165876431257472
0.09146167927180105794
0.06852772614742108637
0.08924082314457594534
0.04559377302304110091
0.06630687002019597376
0.02279688651152055046
0.04353856176715771575
0.11194175369554004718
0.16648773608227665499
0.14160453455854174476
0.13923403746613549625
0.11653310691517140829
0.11431225078794629568
0.21331233160429113882
0.22522897400320399108
0.19994307920993104055
0.24984880289609762150
0.22446809061823475018
0.23753888844965082017
0.19908737834037187886
0.21215817617178794885
0.17364438799311537887
0.18687228137851497056
0.20608924743727474738
0.19520145150010187463
0.22080755726853790177
0.18434136203601886317
0.23532818008231776163
0.20994746780445489032
0.06866567978286139406
0.04586968029392172325
0.04573172665848140861
0.00000000000000000000
0.00000000000000000000
0.02293484014696086162
0.00000000000000000000
0.02293484014696086162
0.00000000000000000000
0.02279688651152055046
0.22642746434985677739
0.25145923949433529598
0.23834410674876965741
0.30122769223965689678
0.28824624770331291890
0.27634346586699609638
0.27526480316696894102
0.26336202133065211850
0.26255680303153328126
0.25024688858508647993
0.18380084663276038959
0.16067089136145701334
0.18581045916212624025
0.13754093609015363708
0.16268050389082283624
0.18782007169149206316
0.11450130768097735445
0.13957273532434769092
0.18959550464875180031
0.16471230312501689008
0.26424347627343724998
0.27863814965077693397
0.24972285345965741787
0.30787547050415992045
0.27886444033135926457
0.29325681007746839946
0.24985341015855866420
0.26424577990466779909
0.22061217388228510083
0.23533048371354828299
0.09160706388228911923
0.06868598845127386887
0.09164541457246069833
0.04576491302025861158
0.06872433914144543410
0.09168376526263226356
0.02288245651012930579
0.04581729665709016741
0.09157272226721666075
0.06877672277827699687
0.16081586529348668169
0.13783088395421300154
0.13768591002218333319
0.11471897391825106038
0.11475732460842263949
0.11461235067639294338
0.20711172078964359966
0.20912133331900945032
0.23042259494652680973
0.21266286675260676065
0.23395479589920192831
0.21088743379534699574
0.27657000387106078776
0.25349629940879381262
0.25526239988513133028
0.23218869542286435514
0.28454285531689998967
0.26323525133097058770
0.29251570676273919158
0.24190410302888029626
0.30019558863344952826
0.27118455846064892789
0.27558619883754814639
0.28829419897298380615
0.30132359477899867128
0.31376168928118208790
0.32629568632270722350
0.30078024474483811002
0.35248234540713602181
0.32690297009306734655
0.33938901586492165041
0.31380964055085291964
0.28998087221488777487
0.34139692481758965314
0.33031150422804333999
0.31581754950352103339
0.31909348736610165798
0.30447482693941013698
0.06872070524862813889
0.04583434661496716550
0.04579962981761288854
0.00000000000000000000
0.00000000000000000000
0.02291717330748358275
0.00000000000000000000
0.02291717330748358275
0.00000000000000000000
0.02288245651012930579
0.18311545952979019214
0.16023467813823794037
0.18336795459747515236
0.13735389674668566085
0.16048717320592287283
0.18362044966516011257
0.11448048031448739004
0.13759239035044934507
0.18371064814896026496
0.16072566680968655706
0.36412244646881553045
0.35102911692660110354
0.37576254753049503909
0.32596650128611526220
0.35070531033257368314
0.33850049832764045332
0.39996278417241148961
0.38786266585145323660
0.37533404725249258638
0.36323392893153438887
0.20524129938771779047
0.22855217354460100054
0.22668175214267516360
0.27497584091192450728
0.27338167795278828232
0.25190213644965753215
0.26966496115508575837
0.24817335664888046098
0.27152331955393704810
0.25003171504773169520
0.29979168387864346679
0.30776453532448266870
0.32301336388622614582
0.32315673254819921034
0.33843799459223844472
0.31547685067748881815
0.36930714551812576785
0.34616025470217592908
0.35387257005518213404
0.33072567923923229527
0.20477896966243291921
0.20503146473011787942
0.22644247979507564628
0.20515110090391763809
0.24805372047508070232
0.22656211596887540494
0.40909862300480887010
0.38382436755413917862
0.39479069284599649370
0.35855011210346943162
0.36951643739532680222
0.38048276268718411730
0.33321279130381464828
0.34443080816575638581
0.36648255404716006955
0.35539713345761370089
0.09174168263057852490
0.09187630137886793058
0.06885532399691754457
0.09202400173162568475
0.06903590184275618102
0.09195015155524680073
0.04604780195388667036
0.06896205166637729700
0.02302390097694333518
0.04594107428442691793
0.16034150981596329011
0.13756756010213638808
0.13746072842441103834
0.11479578091688102948
0.11472193074050215933
0.11461509906277679571
0.37938973081923188513
0.36395515535628825132
0.38947231612033805792
0.34849405334785393817
0.39928546956257349176
0.37401121411190374477
0.41260674930958024520
0.42525071444674900079
0.40050663098862204770
0.45204860150195930180
0.42719657342522276977
0.43864965797435417905
0.40234454534848629326
0.41379762989761764702
0.37741344537781118529
0.38905354643949063842
0.28704673229598975936
0.28890509069484099358
0.30442850343689370485
0.29206312924894994865
0.30755625462683916505
0.29046896628981372368
0.33872655172885690611
0.32157752758287527772
0.32314140317784800782
0.30599237903186643495
0.34650315309914958561
0.33091800454814074284
0.35427975446944232063
0.31528480925653268319
0.36179344999378404424
0.33864655917783426098
0.41988699686874486616
0.40557906670993248976
0.43067537073268086223
0.39141365401783523303
0.44136198611732008201
0.41650995804058354999
0.27825099030154698543
0.25443965476915419988
0.27615698176044978229
0.23062831923676146983
0.25234564622805699674
0.27406297321935257916
0.20687188938327583099
0.22853539951591855806
0.27186396718721916876
0.25025272650721408496
0.00000000000000000000
0.02302390097694333518
0.00000000000000000000
0.06899615365923063293
0.04596830558683557416
0.04600805377036112226
0.00000000000000000000
0.00000000000000000000
0.02298415279341778708
0.02298415279341778708
0.11552957859228940585
0.13830135777754476445
0.13903515545295314082
0.18387309353319783445
0.18463072753660547676
0.16109914381937093242
0.18602456377190540460
0.16252985961242927271
0.18532764565425544068
0.16183294149477930879
0.42450659544467139739
0.44905040671693130516
0.43715056058184015297
0.49802524754040167210
0.48620701300744184614
0.47353782712866648863
0.47438877847448202019
0.46171959259570666267
0.46321868998822068875
0.44981974646061551049
0.20762952338668347330
0.25515820698849084325
0.23206542367543467331
0.23134687145609805770
0.20904499372367002508
0.20834807560602008891
0.39347454289583566611
0.40355712819694178339
0.41764194027354556438
0.42323824509000929073
0.43737786717520971136
0.41342509164777385688
0.46608524583743732306
0.44186359305549144372
0.45173155650632351721
0.42750990372437763787
0.29223917840566465687
0.30962094954656860235
0.31481339565624355536
0.34416306905202265209
0.34959958637518834257
0.32701404490604102371
0.36015348520578482905
0.33748344043101419221
0.35487653579048661356
0.33220649101571597672
0.29443818443779806726
0.33970133483990638812
0.31924918447402789168
0.31703129006513575128
0.29875008738778741080
0.29665607884669020766
0.43410724670837785855
0.44489562057231391012
0.45911587041194690251
0.46609030171443610602
0.48013200192691285473
0.45540368632979688623
0.50905037566963218243
0.48408312304078954247
0.49459118879827251858
0.46962393616942987862
0.38196747079722470630
0.39462779607632370027
0.37445377527288303821
0.42008333142858989007
0.39968429466723642829
0.40735556375245679517
0.37928525790588302202
0.38695652699110338890
0.35900590481736993631
0.36678250618766267133
0.02330724991826080977
0.04629140271167860032
0.04661449983652161955
0.09231599853310665238
0.09260799533458762001
0.06928815046071160055
0.09320689635750931124
0.06991069809701547233
0.09290744584604845868
0.06961124758555461978
0.45476436368939376909
0.44344348154135021511
0.43054271090744788975
0.43176340648497002483
0.41903563880883698545
0.40613486817493460457
0.44824686879357833469
0.49848236668849799091
0.48791435770736385491
0.47351511405965540646
0.47699980177240058898
0.46264611244128678313
0.11638247013909837346
0.11608301962763753479
0.13955804392068743569
0.11582157539377038735
0.16279130384629642014
0.13929659968682028826
0.51076025432138227877
0.52349526110236277443
0.49894201978842239731
0.55086433916343380268
0.52618516890285349508
0.53717980013289823304
0.50150599864227318747
0.51250062987231803646
0.47677730007211627239
0.48794738855837760383
0.37531426492944386375
0.37003731551414564827
0.39047504465310295396
0.36444242214053568230
0.40527918804084639426
0.38488015127949298799
0.28392324277658825826
0.25940351428986468951
0.28250616364632902267
0.23488378580314112076
0.25798643515960545392
0.28108908451606978707
0.21045417478752326268
0.23347460473928788316
0.27967003740880835849
0.25657725409575221631
0.51951406361954943769
0.50505487674818971833
0.52997775156946669295
0.49081900028459302110
0.54042104536645019230
0.51574187510586999572
0.36781646625216946056
0.37547944729855409207
0.34736431588629101963
0.39021077006414395250
0.36223492738373552768
0.38284510868134902228
0.33425908470332710287
0.35486926600094059747
0.30625503750243704415
0.32675413458867752503
0.00000000000000000000
0.00000000000000000000
0.02328037829331253139
0.00000000000000000000
0.02328037829331253139
0.04656075658662506278
0.00000000000000000000
0.02330724991826080977
0.06988382647206718701
0.04658762821157334116
0.30767408460969847273
0.36363046398055814956
0.33705015789697234663
0.33565462130014972475
0.31048670033678027469
0.30906962120652103909
0.11731624503795687331
0.14049181881954592166
0.14142559371840443538
0.18690795341915095173
0.18779134306639649887
0.16367469349354196728
0.18974716058893006942
0.16558637715366725240
0.18876925182766329803
0.16460846839240045325
0.49161938866945942284
0.50253394460442268876
0.51715353150148157813
0.52370984217042870768
0.53836930867122534394
0.51314183318929462718
0.56818206188758568764
0.54266779669453368840
0.55327568527940551579
0.52776142008635340552
0.26029914998208109056
0.23667505718757389510
0.23577942149535752181
0.21321110888825198226
0.21223320012698521086
0.21133756443476880982
0.47991166713396127275
0.49373808843048522244
0.46859078498591771877
0.52140822196792557808
0.49604994117963213673
0.50757315519920542801
0.47069166039133869539
0.48221487441091193116
0.44538749590996429273
0.45706757096634442750
0.56166426117804180151
0.54797972214750634290
0.57246418319264991137
0.52247216129363094339
0.54691907504686032571
0.53520716807461155007
0.59577433850674244020
0.58411926084969612027
0.57134670677680143847
0.55969162911975511854
0.46470264271302719195
0.43854503428244240304
0.45373826724437538171
0.41238742585185766965
0.42758065881379059281
0.44277389177572351597
0.38627045552882122159
0.40143123525248031180
0.43142861160215673078
0.41662446821441323497
0.56534432656990940558
0.57982431397638511950
0.55490103277292590622
0.60982149568922483507
0.58465057482692484037
0.59482290483280497728
0.55947965396462484566
0.56965198397050498258
0.53426501481712851405
0.54472870276704576931
0.53337122429617722652
0.51953615752745707645
0.54533422662442898599
0.50544580996598342804
0.55675814425600733681
0.53124387906295522654
0.44615275922241393047
0.42760287573180061349
0.41999515079182914157
0.40890682289797231075
0.40154116151517738054
0.39393343657520585310
0.57876422302218233362
0.56385784641400227279
0.58934638415677909062
0.54892448131792503929
0.59958393992300196285
0.57441301906070196814
0.02346889523618348947
0.04674927352949602433
0.04693779047236697893
0.09337835110893952240
0.09354980586036974743
0.07005528122349741205
0.09404281241986041373
0.07049030144611369286
0.09379630914011508058
0.07024379816636835971
0.50754055336201331361
0.49367288475610104914
0.48218227257371987227
0.47918776373456412054
0.46822338826591225480
0.45673277608353113344
0.16581513880294712626
0.14188311701696418310
0.14165435536768430924
0.11796296471841230535
0.11771646143866695833
0.11748769978938708447
0.30514209426279487181
0.33170555182298688823
0.32636094574900148535
0.38472430477259300652
0.37923783948104211605
0.35814399868900725910
0.36871705308722174665
0.34753899941811161600
0.37397744628413193135
0.35279939261502180070
0.29663629676914637923
0.26979206593285992577
0.29331512093521361351
0.24294783509657344456
0.26647089009892716005
0.28999394510128090330
0.21634749784275175699
0.23981144614207366983
0.28695859393893458078
0.26333450114442741308
0.60868450241478200269
0.62159466632282167620
0.59702942475773579378
0.64965966498994998091
0.62497210962887428387
0.63562716565638588406
0.60028455426779858684
0.61093961029531018703
0.57557444671561619476
0.58637436873022430461
0.61972851404294027056
0.60472992318652041277
0.62963553239665581707
0.59005443412209190868
0.63964759869330289899
0.61496004333222720195
0.30817744542514119432
0.35066904792521202960
0.33262104276320225704
0.32949099425610184344
0.31462866976617431813
0.31130749393224155241
0.42178190536072190930
0.44047795819455026756
0.45335304065729986611
0.47785930170930634997
0.49101596070558545248
0.45930941821869303299
0.51706280918293312521
0.48520792492011649566
0.50403938494425926109
0.47218450068144268705
0.54821064005196706859
0.56017364238021882805
0.57501305813600855910
0.58329567208425248115
0.59840928228091927465
0.57187175445267413032
0.62874454564391002442
0.60187880188995923625
0.61357691396241464954
0.58671117020846397239
0.07053983568023261541
0.04703685894060482403
0.04698732470648590148
0.00000000000000000000
0.00000000000000000000
0.02351842947030241202
0.00000000000000000000
0.02351842947030241202
0.00000000000000000000
0.02346889523618348947
0.46346452664776971453
0.43966336957992413481
0.44499742263370439810
0.41586221251207849958
0.42119626556585876287
0.42653031861963908167
0.39228963279965012312
0.39755002599656030782
0.40837054434189151708
0.40288407905034062662
0.59421252171455329893
0.60479468284915005594
0.62024298154152102125
0.62527308471654063915
0.64072467374385655425
0.61503552895031776693
0.67229313661507950073
0.64626805907830031650
0.65650890517946802749
0.63048382764268873224
0.18982037758051908960
0.16580072171557769245
0.18971716592737106200
0.14178106585063632306
0.16569751006242966485
0.18961395427422303439
0.11791193913524836145
0.14183209143380026696
0.18968055743157655191
0.16574853564559360874
0.43994167963846947389
0.50358090072399230852
0.49009899226505143632
0.47172601646117562346
0.47678175945641054767
0.45831465544234528675
0.53541058761197524163
0.54941295325602490518
0.52154291900606297716
0.57682373101456507758
0.54872027303132897558
0.56311834213529499138
0.52061681504809287357
0.53501488415205888938
0.49265972888056003276
0.50714484990209696136
0.26993339897305168584
0.24323050117695696470
0.24308916813676520463
0.21652543937873802715
0.21642222772558999955
0.21628089468539823947
0.66172463671397840912
0.65115613681287742853
0.63569955917719922489
0.63995034122839378199
0.62478270954689829608
0.60932613191122020346
0.62020539880115321818
0.64463645909556399616
0.63311556270919289169
0.69356701821181776513
0.68205625264666891461
0.66910173865369082513
0.67054548708151995307
0.65759097308854197461
0.66010257603573496699
0.64607007670217075912
0.59021335370601590853
0.57650796482674582233
0.60360297639746673948
0.56221300569601673214
0.61617376102068832644
0.58930801726673764929
0.53218906481037009382
0.51916564057169622970
0.54731532043780706243
0.50581638787683913527
0.56206952572618607000
0.53396606774294996800
0.63510575946521141688
0.64501277781892696339
0.66039002324119799869
0.66465318783233251487
0.67964671067471493782
0.65464112153568532193
0.71091909436134548272
0.68565455880127168520
0.69528290251803026578
0.67001836695795646826
0.32588785066015824032
0.34388022365718617923
0.35513940455117015693
0.37990079223764972038
0.39108453138807763860
0.36185278707563994782
0.41363578936934519703
0.38438759696025770474
0.40236016037871141782
0.37311196796962387001
0.70140991037363398242
0.69190072638592259313
0.67614537481356029591
0.68209693150050099142
0.66631270006488962920
0.65055734849252733198
0.09402338623536994622
0.07044491432882656057
0.09400476232198037851
0.04686644242228316798
0.07042629041543699286
0.09398613840859081081
0.02343322121114158399
0.04695165068144399600
0.09401447541422561227
0.07051149867459781395
0.45089799928897389414
0.43833147193017807375
0.42709684222112831442
0.42598363064976163539
0.41470800165912785618
0.40347337195007804134
0.16588099045081525218
0.14194160332111141476
0.14186133458587385503
0.11798249477824068743
0.11796387086485110585
0.11788360212961357387
0.49139854859341675075
0.50471578140205763940
0.51933257053906378697
0.53163596888254216477
0.54620912858215120433
0.51815406042360134808
0.57544123679391945281
0.54738690366649156438
0.56082518268803527306
0.53277084956060749565
0.27188142046718583034
0.25135991170756194490
0.27803430626193703645
0.23083840294793803172
0.25751279750231315102
0.28418719205668829808
0.21032939026422856066
0.23703445206244749821
0.29041174441291733865
0.26370884661682264527
0.73724084045402171750
0.71006521947993395116
0.72091489140150422088
0.68288959850584629585
0.69373927042741656557
0.70458894234898683528
0.65581707207487816014
0.66702286765936191770
0.68844103948203316801
0.67787253958093218742
0.70669905637465768589
0.71983109453749760664
0.69518829080950883537
0.74858326817960785249
0.72384160923615681327
0.73420718135855267406
0.69909995029270566302
0.70946552241510163483
0.67437980764132787748
0.68482271868711275253
0.72018864393558867931
0.70455245209227346237
0.72945819350983198692
0.68937333048371030042
0.73902073084471986419
0.71427907190126882497
0.54605167774890350785
0.56117793337634047646
0.57504054631487400151
0.59109930171380553610
0.60537487241304588359
0.57634509642542641750
0.63342848902129422761
0.60423451766808411456
0.61940168071717005560
0.59020770936395994255
0.31347955798090443302
0.34273111187191634963
0.33032281919266254233
0.40127648956447237172
0.38891718975959960192
0.37202829715538487942
0.36433336152055417756
0.34732809035660838770
0.37662527564007686198
0.35962000447613107212
0.60498529922265276149
0.61837492191410359244
0.63314686743074044539
0.64415301561341786751
0.65956148558292582162
0.63158223099019628055
0.68983818275996655611
0.66149252509535350075
0.67469983417144618887
0.64635417650683313351
0.56062483744851254741
0.61887613025341781103
0.60432377148554139445
0.58968215890020769798
0.58988250413973042363
0.57526645003384624388
0.34119123939127238287
0.31804911726199058819
0.32418596822732659302
0.29496526886458818151
0.30111815465933944314
0.30725500562467544796
0.07055153680945644434
0.04707968738354295635
0.04697306490291305869
0.00000000000000000000
0.00000000000000000000
0.02353984369177147817
0.00000000000000000000
0.02353984369177147817
0.00000000000000000000
0.02343322121114158399
0.77655852670570968410
0.75047143384771430874
0.75990603425545300009
0.72438434098971882236
0.73381894139745762473
0.74325354180519631608
0.69833873880239916154
0.70814253368782065223
0.72708631808327095492
0.71757713409555945461
0.70220415965613314224
0.68706581106761277500
0.71457013655229972837
0.67122554204438600323
0.72590548850316072294
0.69872986752907295660
0.47797657547278182832
0.49248862429779394212
0.46541004811398600793
0.52186971591104969193
0.49472767340581669249
0.50717917010442181702
0.46758563090058363754
0.48003712759918881758
0.44061071013496444504
0.45295855141538088340
0.56190142470292214760
0.54836161261192495342
0.53384709157549437020
0.53511566426148737818
0.52042511845485939226
0.50591059741842880904
0.11946935728325958070
0.14342846582613030804
0.14491532833114920131
0.19137531519099598709
0.19293025280147285683
0.16743592806129214967
0.19619825458381631722
0.17055679145748275927
0.19456425369264457315
0.16892279056631104295
0.74740392145004186375
0.73107797239752436713
0.75756700244606189898
0.71448664166935282882
0.76706276457588584705
0.74097567171789036067
0.61926086992189310898
0.67604140543241497685
0.66224462810486339759
0.64769574776780192149
0.64783655856307875709
0.63380975025895458508
0.25298787290937491123
0.23409432535156396438
0.23246636414975099805
0.21514628996769014080
0.21351228907651842448
0.21188432787470545815
0.75879139210827961648
0.74441530528722443805
0.76899951603695126945
0.71810286779593934803
0.74263871738006104195
0.73123490595877926879
0.79193545593156056128
0.78046748598425597088
0.76728708665581080162
0.75581911670850621121
0.76400269308980806038
0.77942211800000815725
0.75444015575492007208
0.81190416292967249046
0.78664783440087138189
0.79566314046484032385
0.76139150587207038434
0.77040681193603921528
0.73615530011670793353
0.74542484969095124114
0.42794460589340060919
0.44225342241745602134
0.41558530608852783939
0.47118973280025544526
0.44444730716011088267
0.45672157760885573330
0.41770488151996632009
0.42997915196871117072
0.39101912152026024883
0.40331103563978298876
0.78549290084014944391
0.76884040838989275990
0.79442727497458931474
0.75232252383863329470
0.80316571895213084709
0.77790939042332984954
0.64726067278046339748
0.66109285653963256735
0.63270831401258698090
0.68856521216118604656
0.66018623020807942758
0.67482903435040930695
0.63180724825497291963
0.64645005239730268798
0.60362424252444624173
0.61806550987025721255
0.45491952665901980168
0.50912269270941545862
0.49637566950778116981
0.48198065020418240367
0.48378270115401833529
0.46931454596261856782
0.08599229572278120626
0.06442173088697403238
0.08799671063442110475
0.04285116605116686544
0.06642614579861394475
0.09000112554606101711
0.02142558302558343272
0.04496542671735491437
0.09201225589071548860
0.06854040646480198673
0.35184307766628708514
0.33935279381201999271
0.32870095553700529045
0.31439008926543265954
0.30372393624795751554
0.32687144153872632613
0.29305778323048237155
0.31620528852125118213
0.28246960184883407319
0.30555345024623647987
0.16869260001455887998
0.14118694544530144275
0.14305113688822532203
0.11358962058404131756
0.11559403549568122993
0.11745822693860510921
0.80269717599340995040
0.77432345163945781596
0.78642589104070026451
0.74594972728550568153
0.75805216668674813008
0.77015460608799046760
0.71789395502273611882
0.73025993191890270495
0.75369772327100603704
0.74236237132014504247
0.26357605429102315409
0.28482684945708669488
0.25526360964874067472
0.27416069643961149538
0.22573093211627848209
0.24467896750015233343
0.58951805730895778801
0.60359487782399623423
0.57597824521796059383
0.63216157224634805800
0.60452763664676867350
0.61787822503517220163
0.57689370104718928900
0.59024428943559281713
0.54938170847911949046
0.56262765682955717672
0.84515814427652757868
0.81809738163788081611
0.82782574546055931464
0.79103661899923405354
0.80076498282191255207
0.81049334664459105060
0.76413872972662788552
0.77430181072264803177
0.79352593667515036735
0.78403017454532641928
0.70511027131421100123
0.72038235986845555736
0.69131349398665942196
0.75010962623982258002
0.72079025413381736520
0.73524599305413906869
0.69147088202781226141
0.70592662094813385387
0.66244968552455318900
0.67685775506633782950
0.67425754196856158007
0.65994987177593711358
0.64587856001545507212
0.64605572201114258579
0.63177237479996661840
0.61770106303948457693
0.80533697186507247068
0.81873848779858438007
0.79386900191776788027
0.84809800640473398392
0.82317617735142500912
0.83341824710165912649
0.79825434829811603432
0.80849641804835026271
0.77341880823886199892
0.78362693216753365189
0.78883823314906209578
0.83875717137216321273
0.82941633633959244154
0.81383534231885423793
0.82066024963463246600
0.80441922716980029939
0.83515601740958111954
0.82515389054263454938
0.80809525477093435697
0.81392553326802219438
0.79765424831531250849
0.78059561254361220506
0.67628186928372246989
0.73471221431220357090
0.71931480238458456178
0.70539284220619835608
0.70394000727288530417
0.69020382946210856456
0.42135730025589213099
0.40704384091170836557
0.43379999319634687804
0.39273038156752460015
0.41948653385216311262
0.44624268613680162510
0.37853187154403938885
0.40521763154374546012
0.45871620946852853518
0.43197378382838397259
0.82864311043712135518
0.84538205794457021991
0.81990466645957971181
0.88032690676258906759
0.85431738500653442436
0.86285448235357964375
0.82830786325047967011
0.83684496059752500052
0.80243319497809473262
0.81136756911253449243
0.39459184777786648901
0.36782639529984090254
0.38027838843368277910
0.34110824228263680880
0.35358959455593041987
0.36604158768977229643
0.79003437631763340221
0.77737157664185696504
0.76166065196368126777
0.76374060144083977253
0.74887696825515626120
0.73316604357698067496
0.00000000000000000000
0.00000000000000000000
0.02155781871438054373
0.00000000000000000000
0.02155781871438054373
0.04311563742876108746
0.00000000000000000000
0.02142558302558343272
0.06455396657577114339
0.04298340173996397645
0.53625743817456694718
0.55064516043808420243
0.52351041497293271387
0.57974370253554541321
0.55255299880856845185
0.56519443148681480782
0.52536229508159137946
0.53800372775983773543
0.49827601394092341236
0.51086898229468624688
0.87187047833945963138
0.86341404991633019517
0.84586095658340498815
0.85428609709642888692
0.83695369828046062288
0.81940060494753530485
0.18628411640742453814
0.17636997823103273131
0.15877846183816707315
0.15622194840805281313
0.13863440047046449166
0.16629596331954277222
0.12104685253287618407
0.14870841538195445075
0.10351957412782869516
0.13111689898908882035
0.59274261599962330127
0.57819334495089269588
0.60574152946370118933
0.56376943074263674571
0.61895155085502462367
0.59131761525544523916
0.30148306370580812974
0.28857603814618359994
0.27191982389746216509
0.26257533080896211519
0.24594138215278274484
0.27557568447757285757
0.22930743349660337449
0.25894173582139345946
0.21275284404020983198
0.24228552157267202460
0.81673822903758841463
0.84154100214361615695
0.83013974497110032402
0.89149806199371051108
0.87996353783972991458
0.86651953206866338952
0.86842901368574931809
0.85498500791468279303
0.85826351004524159549
0.84358375074216684908
0.70191928394088654031
0.71527335572058703406
0.68761161374826207382
0.74254776922702980801
0.71484205889692731262
0.72891056247380836552
0.68713634856682470620
0.70120485214370587013
0.65964896040658638210
0.67354311017138090989
0.20283870586381805290
0.23599846107776234483
0.20942159134656260222
0.21936451242158300223
0.18282176987730769380
0.19289578478879765289
0.83716200665130247049
0.84591809335626244604
0.86241985037293245053
0.86378723120712019856
0.87947645600950652423
0.85444639617454942737
0.91319525288478942127
0.88780755162886093590
0.89633585444714802826
0.87094815319121954289
0.85390095415875133522
0.90501023710961259194
0.89682522133443576262
0.87962253585368410658
0.88857606404851241511
0.87110363963950299127
0.71644523155606609777
0.73182002666776546640
0.74432525095094626000
0.76291927741846532474
0.77572892859710806945
0.74752186549084631562
0.80081815436310899159
0.77257170265702757028
0.78827354148010853052
0.76002708977402710921
0.52907161867083241091
0.50211401275184996962
0.51455809240217698086
0.47515640683286747281
0.48760048648319453957
0.50004456613352155081
0.44825685354437982966
0.46069954648483457671
0.48561714946688849803
0.47314362613516158795
0.85900019344006750543
0.87284224260360754322
0.84899806657312104630
0.90027196876894344246
0.87581656468446034136
0.88655710568627554835
0.85136116059997724026
0.86210170160179244725
0.82702916829669359533
0.83825752557130583931
0.54171002771458054426
0.52719650144592500318
0.55434843675832856658
0.51270343060755640963
0.56704606964693704541
0.53985536591995997302
0.87880446620787799894
0.84633134017283184747
0.86008645212501377841
0.81385821413778580702
0.82761332608996762694
0.84136843804214944686
0.78198392018880413801
0.79561489538982144154
0.82203280701777969863
0.80937000734200315044
0.40891488792424829368
0.39647247559260445637
0.38214943544622270721
0.37142808546257471969