VARIABLES = "X", "Y", "P", "U", "V", "divergence", "vorticity"
ZONE NODES=7555, ELEMENTS=14672, DATAPACKING=BLOCK,
VARLOCATION=([6]=CELLCENTERED), ZONETYPE=FETRIANGLE
0.00000000000000000000
0.01669661284401714393
0.00000000000000000000
0.03339322568803428787
0.01669661284401714393
0.00000000000000000000
0.06677294127912480892
0.05016432988180467845
0.05008308348357955186
0.03355571848448454797
0.03347447208625942139
0.00000000000000000000
0.00000000000000000000
0.01677785924224227398
0.01677785924224227398
0.02550353384390996805
0.05100706768781993611
0.04220014668792711199
0.10173445917082711565
0.09297677701563722419
0.07637076342932352935
0.08421909486044734661
0.06761308127413363789
0.07549601806978607776
0.05880616027424082071
0.07087871035284065702
0.07498447942655651899
0.05427009895552053348
0.08339257241904582396
0.06250522254271513589
0.07918852592280117841
0.04161787266638444782
0.05830117604647048341
0.02080893633319222391
0.03758679557543449790
0.08741968773957148331
0.09614276453023276603
0.10806643420001817157
0.11355501277129806392
0.12537556637176902608
0.10479733061610818634
0.14954960671741335254
0.12880802045871575512
0.13746258654459120319
0.11672100028589360576
0.09152545681328734528
0.13308888783529340682
0.11662816895317344723
0.11234730157659580940
0.10001037068610962866
0.09580632418986498311
0.06263227228286824544
0.04187197214669068079
0.04174492240653756431
0.00000000000000000000
0.00000000000000000000
0.02093598607334534040
0.00000000000000000000
0.02093598607334534040
0.00000000000000000000
0.02080893633319222391
0.12711054075852862288
0.15248662234623011624
0.13893109435899958504
0.20319624680356229707
0.18971337646829344870
0.17784143457489620666
0.17623050613302460032
0.16435856423962735828
0.16289005642521897643
0.15080303625239682708
0.11076940732174467286
0.12738720558880847755
0.13814624222444352175
0.16035599089108426574
0.17116237506475520669
0.14389527200896432002
0.19319009064550413113
0.16566816643497384032
0.18217623285512968279
0.15465430864459936422
0.08561889353627352706
0.08784521465350124403
0.06485859340009596241
0.09235090143156833575
0.06919051291386950353
0.09009805804253478989
0.04603012439617067131
0.06693766952483595767
0.02301506219808533565
0.04395104827143067605
0.11299572843897237595
0.16807884102901471390
0.14296759141252526892
0.14055691681848439534
0.11765924642204680928
0.11540640303301324954
0.21521724871736519491
0.22723825063116809275
0.20173437838209634654
0.25209535443049191361
0.22649241652325785568
0.23966680253083000318
0.20088947861602382550
0.21406386462359594525
0.17521954266671857514
0.18855999237452419903
0.20801978091975098506
0.19700592312937650896
0.22284947119399781124
0.18602592684038951609
0.23747241281224484855
0.21186947490501081837
0.06933509848930972941
0.04631929554705113000
0.04617470997161089719
0.00000000000000000000
0.00000000000000000000
0.02315964777352556500
0.00000000000000000000
0.02315964777352556500
0.00000000000000000000
0.02301506219808533565
0.22843803503193696458
0.25367982326031163209
0.24045903694573986242
0.30385309421887951586
0.29077233921663470095
0.27876645873959560173
0.27769158421438994155
0.26568570373735078682
0.26489346932244095534
0.25246491742277898940
0.18566559126540080338
0.16228521092121661606
0.18766652764755864524
0.13890483057703240100
0.16428614730337443017
0.18966746402971645935
0.11562786600430036144
0.14093621099477882108
0.19142877733761029524
0.16631752772112085026
0.26664873130447741545
0.28120210817846297280
0.25202578968623040589
0.31081967194401438626
0.28152686055024478406
0.29601089006123870728
0.25223404915647523739
0.26671807866746910509
0.22271206990098968426
0.23754176017523653819
0.09254258243043142484
0.06938365478703284461
0.09257011175172281947
0.04622472714363427132
0.06941118410832423924
0.09259764107301421410
0.02311236357181713566
0.04627201134534270066
0.09247427125229126799
0.06945846831003267552
0.16244917919364379455
0.13923276712188678572
0.13906879884945960724
0.11588767477615910528
0.11591520409745049991
0.11575123582502330755
0.20921422597935343535
0.21121516236151127721
0.23276286069330606732
0.21471984096113599927
0.23624959127676786741
0.21295852765324216338
0.27938401819165886719
0.25607343944248245338
0.25781680473421336730
0.23450622598503695349
0.28739741641843202791
0.26583020296098652802
0.29541081464520518862
0.24424182021662155240
0.30311524329460981519
0.27382243190084021300
0.27805356681428033960
0.29085168170622932582
0.30401177919806876560
0.31649666865698034002
0.32914024309508110866
0.30341591365473552511
0.35561513084628626480
0.32981345502217751520
0.34237768697068371448
0.31657601114657496488
0.29260694368826589695
0.34448444780824177824
0.33335376477019729169
0.31868277198413302864
0.32208671835710583897
0.30727793647433010449
0.06942396004549751531
0.04630533766056361272
0.04626503240209894202
0.00000000000000000000
0.00000000000000000000
0.02315266883028180636
0.00000000000000000000
0.02315266883028180636
0.00000000000000000000
0.02311236357181713566
0.18504553594911030134
0.16191299768925471181
0.18528566464088960797
0.13878045942939909452
0.16215312638103401843
0.18552579333266891459
0.11566152092991525968
0.13900661327564295400
0.18559569229903485899
0.16237928022727785016
0.36731525833593275943
0.35407781446033015360
0.37901538582557925405
0.32879021675694897198
0.35372733929501842809
0.34143379119504979613
0.40338382561540120363
0.39119960572049022884
0.37855558245520981586
0.36637136256029884107
0.20735010011720439449
0.23089873483115702646
0.22903460896900801336
0.27780737230768032253
0.27623072642370177787
0.25449679355850390872
0.27252214733450463857
0.25077837815175629821
0.27437643687910318047
0.25263266769635489561
0.30285903093566485245
0.31087242916243801316
0.32633404367967083770
0.32631714198287403716
0.34181461202173368807
0.31861271333346941059
0.37315134346639372565
0.34974269357303228167
0.35748297774406367910
0.33407432785070223513
0.20693964597411612649
0.20717977466589543312
0.22883375599912197940
0.20728020115083845010
0.25067795166681328123
0.22893418248406499638
0.41310879178390552680
0.38756016626729056229
0.39855815327942878401
0.36201154075067559779
0.37300952776281381951
0.38400751477495198571
0.33641560634734501978
0.34768265276043641698
0.36981132281061912526
0.35868063977257463870
0.09268795606446879332
0.09283332969850616179
0.06956933367953488379
0.09299632121900046344
0.06976314043425226041
0.09291482545875331955
0.04652995964950406432
0.06968164467400511652
0.02326497982475203216
0.04641764865503383852
0.16203159922056048492
0.13901766249201069625
0.13889906096070489538
0.11600699185550558679
0.11592549609525842902
0.11580689456395262815
0.38328745873345326789
0.36761909301112327686
0.39342357400051286564
0.35191307638620461518
0.40326618289220916846
0.37771755737559420396
0.41615566952972160575
0.42892751344404206337
0.40397144963481068647
0.45612460917973557395
0.43102789467835883608
0.44252606131188881866
0.40593118017698209821
0.41742934681051208079
0.38077315551163415375
0.39247328300128070389
0.29009333459468789052
0.29194762413928643241
0.30766452185487114246
0.29507529709069169055
0.31076657598972456942
0.29349865120671314589
0.34234277212691172076
0.32500364699089145937
0.32655467405831817285
0.30921554892229785594
0.35018349048663954814
0.33439539241804600023
0.35802420884636743104
0.31855030983469767580
0.36558777615638060610
0.34217912626301916212
0.42391750482874285266
0.40936686632426610988
0.43472621787358017853
0.39496934747596701420
0.44542541352665787624
0.42032869902528113837
0.28123320210462920965
0.25715947245349707329
0.27911555992715186836
0.23308574280236493692
0.25504183027601967648
0.27699791774967447155
0.20906563937573763301
0.23095974940074345816
0.27476003254208958282
0.25291583687439822548
0.00000000000000000000
0.02326497982475203216
0.00000000000000000000
0.06972613542108940798
0.04645594962317833865
0.04649295463634120495
0.00000000000000000000
0.00000000000000000000
0.02322797481158916932
0.02322797481158916932
0.11675484954428255735
0.13976552018078766682
0.14051337786956463738
0.18581947784628921605
0.18659341974346810300
0.16280554111773939963
0.18800716179545517992
0.16426026983250990865
0.18730029076946164146
0.16355339880651637019
0.42813543564567568822
0.45288704567595017281
0.44090727955999609033
0.50231573682985242169
0.49041836907836783288
0.47760139125290129725
0.47852100132688324408
0.46570402350141670844
0.46732280525330938126
0.45372425738546262597
0.20983958127291651996
0.25788743444118744641
0.23454166677774565541
0.23381370479005531005
0.21127441428660043155
0.21056754326060689309
0.39761450538950304789
0.40775062065656264565
0.42207766731261237014
0.42750971626768868861
0.44191064075147185042
0.41766710737599233028
0.47114353549397453014
0.44661060140329345014
0.45652708812272319028
0.43199415403204211028
0.29536187200710295464
0.31293305926728620658
0.31820159667970121520
0.34786368087244612379
0.35338458961798047131
0.33052455573642580688
0.36407505216323149400
0.34113832442146635460
0.35872982089060601041
0.33579309314884087101
0.29759975721468784338
0.34338536688864584878
0.32269568161406025908
0.32044863914688070938
0.30196444185934473436
0.29984679968186733756
0.43841628398764215246
0.44922499703247947833
0.46372377619137877813
0.47044025720036752869
0.48475590522099953894
0.45974106154728988649
0.51431315533931321049
0.48901846576534602207
0.49953453028015637472
0.47423984070618918629
0.38601206770479667973
0.39887279194319957831
0.37844850039478350467
0.42470545387920333180
0.40405133305346174755
0.41178912291120145506
0.38339721222772021880
0.39113500208545992631
0.36286999217731596978
0.37071071053704385267
0.02355665851009477313
0.04678463332168394245
0.04711331702018954626
0.09329575770837597593
0.09359519419775148841
0.07002557191046490659
0.09420587891635144595
0.07065959796827049610
0.09390053655705146718
0.07035425560897051733
0.45972453941481616901
0.44830554333565775238
0.43519160532413503351
0.43650549860743054209
0.42358916763942866535
0.41047522962790594647
0.45281720847142531428
0.50370850094504115990
0.49310384655076910931
0.47841381137107397148
0.48212369102237184748
0.46750724365112050762
0.11762698999412421474
0.11732164763482422210
0.14104810107189696966
0.11705428603365805595
0.16452763143367607479
0.14078073947073080352
0.51522804971946745134
0.52814036260908248099
0.50333068196798280702
0.55610505410303057161
0.53111566703049439830
0.54212270835605647079
0.50612627995795833602
0.51713332128352040851
0.48112544456884698274
0.49232364064242079005
0.37941422581277584047
0.37406899454015035689
0.39475339946232024246
0.36839090092285031730
0.40972942667076178713
0.38907530584502025839
0.28692836816264377653
0.26215558126165328101
0.28550758795798603096
0.23738279436066278549
0.26073480105699553544
0.28408680775332822988
0.21269497807805898271
0.23596223056920423433
0.28266000492897869201
0.25931423726553692877
0.52478149850533561960
0.51000287344617878382
0.53524984167135791768
0.49544109258947893748
0.54567744788719418914
0.52068806081465812685
0.37181558432415789950
0.37955611648508430500
0.35112589904957225428
0.39439466350219759549
0.36612200467328137599
0.38697538999364095025
0.33784934584436510097
0.35870273116472473074
0.30954127397449715531
0.33027251372921268002
0.00000000000000000000
0.00000000000000000000
0.02353094654226272828
0.00000000000000000000
0.02353094654226272828
0.04706189308452545655
0.00000000000000000000
0.02355665851009477313
0.07063388600043844778
0.04708760505235749794
0.31096807679884663767
0.36751261174891292072
0.34063055999562824594
0.33923995291999664570
0.31377946407913603899
0.31235868387447823791
0.11857203085273484988
0.14199314193050760480
0.14293818278911826769
0.18889957397829335028
0.18979198616113152065
0.16542004361651424516
0.19176609307935152393
0.16735213793423489581
0.19077903962024150841
0.16636508447512488029
0.49702339104550286031
0.50800354657390012214
0.52290324659703113497
0.52929067014893060872
0.54426818495854811797
0.51868601575465866915
0.57464831930442161756
0.54877578295072637626
0.55945825213148481225
0.53358571577778968198
0.26305566132584373706
0.23918295448904372535
0.23828287442485324155
0.21547452378419762464
0.21448747032508763688
0.21358739026089715307
0.48520423019288388966
0.49926492489179324918
0.47378523411372552854
0.52733680273995531262
0.50164865011943693407
0.51330086381587425315
0.47596049749891861103
0.48761271119535593010
0.45033297568906094366
0.46213302041728820946
0.56691038682207306465
0.55292804107509896383
0.57771571954111555769
0.52702568887079304094
0.55173564091173366020
0.53993800176040807060
0.60123923322164252170
0.58947747638137903969
0.57648743706668814646
0.56472568022642466445
0.46986860556957127377
0.44339760783472759176
0.45878249319475661316
0.41692661009988396525
0.43231149545991293115
0.44769638081994189704
0.39050083113155775738
0.40584000478110210386
0.43620091734957261442
0.42122489014113106975
0.57096561347164198619
0.58582617284025340076
0.56053800725580571473
0.61659925734571563449
0.59103578404156198456
0.60121271509298446212
0.56547231073740833462
0.57564924178883081218
0.53989273303836071705
0.55036107620438312615
0.53944493079360356091
0.52540899186952261246
0.55155305884725192023
0.51108408574441221983
0.56310068907583676889
0.53722815272214152760
0.45107015733520089418
0.43227170910083051458
0.42459915960035721216
0.41333318630151405504
0.40591391279295740979
0.39824136329248416288
0.58532498626520057528
0.57013491909226376997
0.59600165322597953299
0.55487024784797822630
0.60630045528584752823
0.58073698198169387830
0.02372232059771638493
0.04725326713997911321
0.04744464119543276986
0.09438066927531760242
0.09455545963428374501
0.07080867635940460425
0.09505546556876066921
0.07125005338209672301
0.09480546260152220017
0.07100005041485825397
0.51328589600785712310
0.49923498927575887807
0.48759774338733874455
0.48455179742266507592
0.47346568504785035980
0.46182843915943028179
0.16758390554593749489
0.14340171801252343808
0.14316995040082086676
0.11922859179064204671
0.11897858882340359155
0.11874682121170100635
0.30836052639830791033
0.33521162231480017279
0.32979268463397209965
0.38881829583385285609
0.38324192816550817220
0.36193624408056823683
0.37256255428442069944
0.35117761945919639954
0.37790224122496440806
0.35651730639974010817
0.29973113771679299466
0.27262098289579111965
0.29638496898588057027
0.24551082807478921688
0.26927481416487869526
0.29303880025496814588
0.21863846057707037041
0.24234689128191647112
0.28998358420880598896
0.26611087737200594949
0.61441786724467262193
0.62759650126770272216
0.60265611040440913992
0.65647100231432398143
0.63136056722974442934
0.64203375179101329628
0.60625013214516476623
0.61692331670643374419
0.58117759312409766892
0.59198292584314016196
0.62652182550680479700
0.61113528325407362463
0.63644439366789384849
0.59603815249270908350
0.64645769799110897047
0.62134726290652930736
0.31141574244447012276
0.35432281456783337736
0.33608307485124605529
0.33293787974260907747
0.31790710628401952498
0.31456093755310710058
0.42631719612509577644
0.44525571892441223598
0.45823972874799395738
0.48314803936533046169
0.49642747316108959410
0.46434959113096008210
0.52266717121635497545
0.49045344998217443866
0.50954732218872234029
0.47733360095454180350
0.55448443512045497705
0.56659256317410322534
0.58163206750095453046
0.58999234702963920807
0.60533637475485679857
0.57844471680105435940
0.63602154458395532277
0.60882680604245487110
0.62067895966940600516
0.59348422112790566452
0.07130057994950302069
0.04754569433024537911
0.04749516776283907449
0.00000000000000000000
0.00000000000000000000
0.02377284716512268956
0.00000000000000000000
0.02377284716512268956
0.00000000000000000000
0.02372232059771638493
0.46828090090603052831
0.44423406315108382447
0.44966102126415230522
0.42018722539613717615
0.42561418350920565690
0.43104114162227413765
0.39637488984027891004
0.40171457678082267417
0.41271790256223583881
0.40714153489389115492
0.60104618960544109463
0.61172285656622005234
0.62744405990646046067
0.63237721319408124465
0.64815516904244685481
0.62207841113421324941
0.68018521164971701420
0.65381463577808873744
0.66417019034608193451
0.63779961447445365774
0.19183860660056586966
0.16756918712560903151
0.19173431436637272673
0.14329976765065216560
0.16746489489141586082
0.19163002213217955605
0.11917761660970641047
0.14335074283158780184
0.19169805760576552611
0.16751587007235149707
0.44464043518513407527
0.50897892116300491594
0.49529067110965485643
0.47676519992882437915
0.48178578600784272012
0.46316590636596449704
0.54150589105659241440
0.55567497937322940516
0.52745498432449411386
0.58334403664986145266
0.55490425607237203742
0.56950950801154542891
0.52646447549488251116
0.54106972743405590265
0.49816654053222686471
0.51284973238532072237
0.27276084185046994834
0.24579054598414690203
0.24565068702946807333
0.21881457629235639972
0.21871028405816322904
0.21857042510348440034
0.66946719669109344686
0.65874918173246987951
0.64309662081946517009
0.64738536315821260114
0.63204277824366328353
0.61639021733065857411
0.62608802993091550171
0.65093682664018848172
0.63926666395394560194
0.70095256322679477812
0.68921990982449676810
0.67594469493349162992
0.67748725642219875809
0.66421204153119361990
0.66697912936826142527
0.65254187884495074012
0.59693340033708419679
0.58309887169876817303
0.61052276402430694091
0.56865352343709196781
0.62327215430413107633
0.59607741576263073568
0.53802519369364065760
0.52490534466600791141
0.55338321617092622873
0.51144597432798599712
0.56836362641039384069
0.53992384583290431443
0.64228792508653931304
0.65221049324762847554
0.66797659282736299158
0.67189294761971352088
0.68731489292510294931
0.66187964329649839890
0.71924681662349088107
0.69361170472542688081
0.70328085477429691519
0.67764574287623302595
0.32926823527708681816
0.34744420384431329296
0.35880533283738058614
0.38384090832077549793
0.39511926235713029643
0.36560116860418817586
0.41786204412733468638
0.38833368848235760851
0.40649065324223249140
0.37696229759725541353
0.70964606087727899464
0.70004530513106721923
0.68401094897921510540
0.69011525839039211672
0.67410023708675703702
0.65806588093490492319
0.09503921530842102117
0.07120678542707001291
0.09501938287524883120
0.04737435554571899771
0.07118695299389782294
0.09499955044207665511
0.02368717777285949885
0.04746002493798218841
0.09502750800541866216
0.07127262238616101364
0.45555661581845213748
0.44283233073087374665
0.43150977806350543364
0.43034718742910421652
0.41897579654400202154
0.40765324387663370853
0.16765143006046309693
0.14346425352036032419
0.14338201058550625877
0.11925173441439067268
0.11923190198121849659
0.11914965904636440341
0.49650198770420306271
0.51000687280601519902
0.52472307450237565263
0.53733731210910018472
0.55200745300184539399
0.52364906205575012521
0.58141551048682504899
0.55306929249460035081
0.56671148174433527700
0.53836526375211057882
0.27473078757680741147
0.25400282708556398692
0.28094276285448671615
0.23327486659432061789
0.26021480236324334712
0.28715473813216607635
0.21255673659744322990
0.23953270628923375996
0.29344293792447950775
0.26647264205815646143
0.74558279624630907634
0.71817071964141421248
0.72917291948157936243
0.69075864303651934861
0.70176084287668449857
0.71276304271684964853
0.66339009381023728018
0.67475391238449455855
0.69647412718328327585
0.68575611222465981953
0.71443335035658495080
0.72791413748637523451
0.70270069695428705181
0.75730239286162637224
0.73208666937425181942
0.74260826517400080338
0.70687094588687715557
0.71739254168662625055
0.68167097410060062401
0.69217910115453795683
0.72858883211459835039
0.71262287026540427348
0.73793084760570570868
0.69709291940599005244
0.74761662023366604046
0.72240089674629137662
0.55198044850907335146
0.56733847098635903361
0.58129372580179183849
0.59772465895147175452
0.61210528125308194536
0.58274424871200403153
0.64032138546607464402
0.61080755563393318575
0.62621333335957829469
0.59669950352743694744
0.31673592094158048438
0.34627301850187430787
0.33374070416636797409
0.40537711432097267572
0.39289218451461066506
0.37584875867599565336
0.36807354228987237965
0.35090712322812017687
0.38048286340224152235
0.36331644434048931958
0.61182681651802817147
0.62541618020525091559
0.64030959638619489027
0.65156395447239101593
0.66710636436082682010
0.63881456419256688051
0.69759314473582167970
0.66895137056100828499
0.68234975454832424990
0.65370798037351085519
0.56665058940181856073
0.62553449704039310042
0.61074760861471166784
0.59602066720825175317
0.59608155955076835841
0.58137753080827847540
0.34471177546326414731
0.32135000863665597048
0.32754535640151194453
0.29804039810673166322
0.30425237338441102342
0.31044772114926699746
0.07131509961433091238
0.04759098392024078972
0.04748266973297989024
0.00000000000000000000
0.00000000000000000000
0.02379549196012039486
0.00000000000000000000
0.02379549196012039486
0.00000000000000000000
0.02368717777285949885
0.78531961503714498019
0.75907908766425147284
0.76862627476705980278
0.73283856029135796550
0.74238574739416618442
0.75193293449697451436
0.70651188597053748985
0.71644193271121259237
0.73558987556023269772
0.72598911981402092231
0.71011947821501308908
0.69487608802751554826
0.72264581169420438744
0.67893250369867308436
0.73411430397025667638
0.70670222736536181252
0.48290166012872354218
0.49752241935141655604
0.47017737504114515135
0.52712586651491066814
0.49972548561288088198
0.51232414293316363985
0.47232510471085109582
0.48492376203113385369
0.44509357441909291886
0.45757871772086244899
0.56768262227228771799
0.55394973405775038700
0.53933640428006301981
0.54053780028633058308
0.52573607670458344376
0.51112274692689607658
0.12075661864457196137
0.14496913775054159901
0.14647402198072290158
0.19341209930527888949
0.19498559200999190932
0.16922492276517611676
0.19829694802501671158
0.17238548500286982046
0.19664127001750431045
0.17072980699535739157
0.75586321211695195466
0.73945333535222212973
0.76614362798759472195
0.72280080150410386253
0.77573162151236985107
0.74949109413947634373
0.62620743881963836230
0.68359338091576515861
0.66959361709570863752
0.65495160674095176390
0.65495750128089169628
0.64084944917439523593
0.25565168066654309076
0.23657257375627879781
0.23492372017529972172
0.21743476089064775469
0.21577908288313535357
0.21413022930215624973
0.76774613327287866138
0.75305200558525309251
0.77818987368413095052
0.72612224222293364484
0.75129192121907251156
0.73960302935272381752
0.80160883674041649716
0.78989935521227372384
0.77645037897974455987
0.76474089745160167553
0.77286270157018566174
0.78842301027874495123
0.76317692894222532995
0.82077832933009398086
0.79550256659561058292
0.80460066980441946605
0.77022680386112707396
0.77932490706993595708
0.74473681024230897751
0.75407882573341633581
0.43229368327102202230
0.44672532241470935821
0.41980875346466001163
0.47590657229777388881
0.44892267400595364801
0.46131594735624159576
0.42193877571413346272
0.43433204906442141047
0.39500615900200292119
0.40741548011437206389
0.79430104905471887733
0.77760770878463358891
0.80328248307229277447
0.76107986917905079416
0.81203040620119337767
0.78675464346670986870
0.65422779757656224220
0.66813420968704972935
0.63944090915088069860
0.69575841806750293728
0.66706832832808715672
0.68194631387727633332
0.63837823858867137616
0.65325622413786055276
0.60989687453774821257
0.62456292360169152200
0.45952521356278019926
0.51423620773019396157
0.50134654894547725501
0.48683582682816417542
0.48862656062162557191
0.47403593568009327885
0.08692745826688427768
0.06512272733173229966
0.08895206403512578852
0.04331799639658030776
0.06714733309997381050
0.09097666980336729936
0.02165899819829015388
0.04545449015841054874
0.09300794255589416026
0.06928382686180403760
0.35546886444980640984
0.34286418660974038453
0.33210709762319817751
0.31767541585677505633
0.30689956015320651872
0.33026980123325772043
0.29612370444963803662
0.31949394552968923833
0.28542724601322272404
0.30873685654314697580
0.17050410023957807137
0.14271125245413940341
0.14459263721743115250
0.11481935536051184055
0.11684396112875335139
0.11872534589204510047
0.81139857687265493080
0.78281116296975372659
0.79502220193037931306
0.75422374906685252238
0.76643478802747810885
0.77864582698810369532
0.72590844690133704553
0.73843478038052845491
0.76211431161720644134
0.75064581934115404138
0.26634813910295840333
0.28781989127563689657
0.25796436669449868129
0.27704403557206835895
0.22813065735975768256
0.24726847022538872567
0.59557849087537551025
0.60974147126392597151
0.58184560266083817925
0.63848529852707325283
0.61058188498293919366
0.62411338489549961217
0.58267847143880502347
0.59620997135136555301
0.55490216897685784581
0.56831410274827764972
0.85379788120263810924
0.82673058740508165165
0.83649464677826657066
0.79966329360752508304
0.80942735298071000205
0.81919141235389492106
0.77262304492691713520
0.78290346079755990250
0.80225551369551995062
0.79266752017074482151
0.71296372975673150130
0.72833431477764143391
0.69896396593667509123
0.75827307202542526543
0.72863290485075449254
0.74330369340153334967
0.69899273767608383068
0.71366352622686268781
0.66965706157107929286
0.68429317738589623410
0.68122005095511983797
0.66668168384273684968
0.65252996121570405741
0.65258349118490510676
0.63821157755333146611
0.62405985492629867384
0.81502392290334280123
0.82843900906626910530
0.80331444137520002791
0.85713550204011157430
0.83234815616040314090
0.84278725555319033980
0.80756081028069481853
0.81799990967348201742
0.78243160157116053988
0.79287534198241282901
0.79799191027971994039
0.84773421319738218038
0.83833292435465278647
0.82294686731767385801
0.82955562684237338367
0.81337796731669886885
0.84383985783648873813
0.83388183447033936702
0.81677256403893228054
0.82264020567149720442
0.80626383072922158668
0.78915456029781438918
0.68356347368156678002
0.74264142066565952405
0.72700976930589378266
0.71300125349098886218
0.71138409368669841548
0.69757198949647181152
0.42563088248371483413
0.41118429563525582537
0.43818038083397059523
0.39673770878679676111
0.42373379398551158648
0.45072987918422641185
0.38240562553833457038
0.40933824225046511192
0.46331822574100012258
0.43633432744917993729
0.83732668649094343927
0.85387504365179289767
0.82857876336204283607
0.88834548152441217272
0.86265728271968677987
0.87111026258810253520
0.83696908391496149804
0.84542206378337714234
0.81114434947605329462
0.82012578349362708074
0.39862344986331443852
0.37161601724291409843
0.38417686301485542977
0.34464571654984454963
0.35724010192632726923
0.36980094769826854506
0.79864103590712065550
0.78588349494158638020
0.77005362200421945129
0.77207828348350582282
0.75710890485961390706
0.74127903192224697815
0.00000000000000000000
0.00000000000000000000
0.02179299985613194005
0.00000000000000000000
0.02179299985613194005
0.04358599971226388009
0.00000000000000000000
0.02165899819829015388
0.06525672898957407542
0.04345199805442209740
0.54161989406018884452
0.55611392160546702090
0.52873023527547213796
0.58541534122772376225
0.55798716272855974907
0.57076463141659539158
0.53055898422939573589
0.54333645291743137840
0.50323277826358481235
0.51595276658743649545
0.88008495243946227582
0.87182442335451226789
0.85439675363473688297
0.86281115227857518857
0.84550791785420353897
0.82808024813442826506
0.18828344653461615010
0.17826994504421558863
0.16049059874917748214
0.15791364116732892198
0.14013743220667351785
0.16809179310577226918
0.12236122324601814149
0.15031558414511686506
0.10464434075645120958
0.13253623785007878633
0.59856554750643919949
0.58391483769531082881
0.61171575378515463672
0.56939619652213602219
0.62510052615611400029
0.59719711261197983010
0.30464866570509235855
0.29162191555340966076
0.27479314112395414327
0.26536998244789200552
0.24856305748592355531
0.27849594900065083314
0.23175613252395510511
0.26168902403868238293
0.21502654027448592222
0.24486024960922689320
0.82643815085181726587
0.85126746496321803459
0.83985323701474356994
0.89988523180384782929
0.88866240155551290414
0.87557634838353293194
0.87743957130717797899
0.86435351813519800679
0.86728753667364477664
0.85293929018672354214
0.70918060587341535950
0.72260279367932767070
0.69464223876103226019
0.75000301424636839354
0.72200588261477660623
0.73630290396284803212
0.69400875098318470791
0.70830577233125624481
0.66624702475512898037
0.68034521741296072328
0.20501303878408533299
0.23852119266687590859
0.21167240288585981167
0.22171426770490745839
0.18479302202659436682
0.19497117396503771403
0.84571338155358399824
0.85449067906586329002
0.87064843377707390459
0.87228491346080405666
0.88743432488149653903
0.86288362461807466275
0.92001532621071335782
0.89533187999389363121
0.90372482554610500394
0.87904137932928527732
0.86226173871443334562
0.91215948489710019231
0.90430364358348691578
0.88747603868028046570
0.89632456255394954425
0.87908934361763990673
0.72395962233610200443
0.73958529795529748263
0.75216082660470118260
0.77117933237940061719
0.78408559273337596895
0.75554768101963487581
0.80934381128535881622
0.78075231894503005492
0.79671470200936744810
0.76812320966903857578
0.53426489580996039397
0.50708101481149703282
0.51963202739269620523
0.47989713381303367168
0.49244814639423289959
0.50499915897543212751
0.45276400814837425290
0.46531350649863001401
0.49045286563660300816
0.47786451907982929743
0.86765767084740819115
0.88151746049217827306
0.85769964748125882004
0.90911917921222706873
0.88469799452481079349
0.89531831985220267089
0.86027680983739462928
0.87089713516478650668
0.83583769335502478004
0.84707932215386705366
0.54701397819461627936
0.53238110977735209062
0.55976306057927216475
0.51777907160241398721
0.57258920090349796350
0.54516102240433395032
0.88829337440447486696
0.85550413271345004951
0.86936007815828364453
0.82271489102242523206
0.83657083646725882708
0.85042678191209242211
0.79049398152392524874
0.80429919298200580613
0.83091267939237367646
0.81815513842683940116
0.41308413520523568074
0.40053738792675647185
0.38607670258483528514
0.37527620567042124788