VARIABLES = "X", "Y", "P", "U", "V", "divergence", "vorticity"
ZONE NODES=7555, ELEMENTS=14672, DATAPACKING=BLOCK,
VARLOCATION=([6]=CELLCENTERED), ZONETYPE=FETRIANGLE
0.00000000000000000000
0.01679839691965900189
0.00000000000000000000
0.03359679383931800378
0.01679839691965900189
0.00000000000000000000
0.06715224376016648566
0.05044312399761136101
0.05037451879974224472
0.03373400423505622941
0.03366539903718711313
0.00000000000000000000
0.00000000000000000000
0.01686700211752811471
0.01686700211752811471
0.02566418237275309294
0.05132836474550618588
0.04246257929241209483
0.10237833784983178809
0.09355854165300239722
0.07685335129766898699
0.08473874545617302023
0.06803355510083961000
0.07594549460816975295
0.05916776964774551201
0.07124609956400551614
0.07533995536784456049
0.05453697980145039148
0.08367717806202532027
0.06273754159459085655
0.07950856671493494732
0.04179790512715637896
0.05856893024750046972
0.02089895256357818948
0.03776595468110630072
0.08790467239458393811
0.09669792324258721927
0.10865710102900140444
0.11425316829097262317
0.12612799873211347212
0.10543337209414324618
0.15029172210612842808
0.12947441156756492320
0.13820986041912095010
0.11739254988055744522
0.09199852819842298246
0.13370722495042619560
0.11712272779472399087
0.11288991441186269071
0.10039995292837465557
0.09623134158128426874
0.06283231700627268934
0.04198745595052005841
0.04189268053883821868
0.00000000000000000000
0.00000000000000000000
0.02099372797526002921
0.00000000000000000000
0.02099372797526002921
0.00000000000000000000
0.02089895256357818948
0.12790450204024847447
0.15343066623066514698
0.13977933248138929567
0.20443315840604045497
0.19083931883100913041
0.17893191231835281485
0.17724547925597777809
0.16533807274332146253
0.16376860068105308921
0.15168673899404561123
0.11105578133289938092
0.12777855619924871622
0.13843438460377344157
0.16097535125962542102
0.17165898041312244171
0.14439085410392321629
0.19327604093800948570
0.16585521277089146364
0.18246751067556596371
0.15504668250844794164
0.08583019607922112715
0.08798321409641692015
0.06498533502346848234
0.09234166234496934966
0.06920980171547155835
0.09016243822069314184
0.04607794108597376703
0.06703057759119535053
0.02303897054298688352
0.04403269851824691272
0.11320879935009517392
0.16813525835121734264
0.14299447576442522734
0.14071443018409934833
0.11766806905469728850
0.11548884493042108068
0.21646233412609633406
0.22849150984615221316
0.20286849455106498175
0.25305394727762703377
0.22741501470938241258
0.24077272856188963734
0.20177608214113776364
0.21513379599364498840
0.17603390212363309586
0.18951078069855775698
0.20828081908026463420
0.19747228881782108445
0.22328559722251975495
0.18671753127713008880
0.23816977225007340824
0.21253083968182875929
0.06932260572466962534
0.04630354910436990795
0.04619074509517183402
0.00000000000000000000
0.00000000000000000000
0.02315177455218495398
0.00000000000000000000
0.02315177455218495398
0.00000000000000000000
0.02303897054298688352
0.22982778357397892766
0.25522240874191737259
0.24185695929403477900
0.30573034297562595718
0.29246189656458798645
0.28047637585877166488
0.27919345015355007122
0.26720792944773374966
0.26612369871558855250
0.25384247999985115607
0.18517394472568640684
0.16194283704448159122
0.18728184563002742147
0.13871172936327674785
0.16405073794882257809
0.18938974653436843609
0.11552669585412304876
0.14085310256385097372
0.19133289373618894702
0.16619211114939683172
0.26730589748705679831
0.28155784769648650734
0.25242172245950311726
0.31033222186251713248
0.28121637376922181684
0.29594503477950184767
0.25210052567592655670
0.26682918668620653202
0.22268828330696802120
0.23769306144922314195
0.09237941798497412149
0.06927404014328135406
0.09242972557239476084
0.04616866230158857970
0.06932434773070199341
0.09248003315981540018
0.02308433115079428985
0.04623610570297924383
0.09241084775239237492
0.06939179113209265060
0.16205110047701776210
0.13892825622834908961
0.13881999279581291873
0.11565383710666160555
0.11570414469408224489
0.11559588126154607401
0.20859202522392678025
0.21069992612826776712
0.23201010572216712591
0.21454286076642786751
0.23580968059484622157
0.21259971356460732883
0.27829255488968424048
0.25515133030592568320
0.25705111774226524490
0.23390989315850668762
0.28639949578915319117
0.26515805864173419559
0.29450643668862214186
0.24395510313538637526
0.30241932927556963717
0.27330348118227432153
0.27905166467486602899
0.29212141611282754772
0.30504938207210502421
0.31832658431105881336
0.33092282564649166954
0.30505813790002089814
0.35671215846842285746
0.33088077027026396859
0.34381749205745726350
0.31798610385929837463
0.29330361488429579353
0.34511317120352419385
0.33351418393862553025
0.31928178300536524947
0.32192320290057130361
0.30753601581755601879
0.06930886358888135867
0.04623830919278860974
0.04620348574718859125
0.00000000000000000000
0.00000000000000000000
0.02311915459639430487
0.00000000000000000000
0.02311915459639430487
0.00000000000000000000
0.02308433115079428985
0.18459406180895721050
0.16153351654200848175
0.18478865364123933657
0.13847297127505972525
0.16172810837429058006
0.18498324547352146263
0.11542619463001692337
0.13870061375170439355
0.18507859509960394861
0.16195575085093527612
0.36888915876059058530
0.35599449234962499133
0.38106615905275831313
0.33084785934705407406
0.35596537571848219095
0.34344410068248693024
0.40597281686200392681
0.39351948795738111997
0.38096909629024305888
0.36851576738562025204
0.20668795888237462277
0.23010603938061499618
0.22820197303906286646
0.27664517859668125155
0.27499780230367831813
0.25350395401292269426
0.27134216325236221179
0.24977206814571253912
0.27316998277802029271
0.25159988767137059229
0.30150574201824581477
0.30961268291771476546
0.32471892914680738906
0.32538495947292289667
0.34043769708332860535
0.31747206688597540136
0.37089351474963039301
0.34780622194821886328
0.35566560591647949918
0.33257831311506802496
0.20633145335755367911
0.20652604518983580517
0.22806884490615014771
0.20659260925629216454
0.24970550407925617975
0.22813540897260650708
0.41168399937663346932
0.38638089538078834728
0.39782592501156299747
0.36107779138494316973
0.37252282101571787543
0.38396785064649258112
0.33570500662373015111
0.34729598766178437774
0.37034000455745774705
0.35874101729255902793
0.09253182613437423154
0.09268423428377434159
0.06946127173828148260
0.09291351088657213986
0.06969542834067277148
0.09279887258517324766
0.04647734579477341005
0.06958079003927387929
0.02323867289738670502
0.04635782749378100642
0.16169574831698074746
0.13879743482500428442
0.13863520305003201871
0.11585547285578820520
0.11574083455438931300
0.11557860277941703342
0.38113166931105391111
0.36590376047790307279
0.39136982387247748472
0.35075774423413585978
0.40152691162455544927
0.37622380762871032722
0.41859804436813230488
0.43122327187426062745
0.40614471546350949804
0.45722258226859402441
0.43214004974103381596
0.44422292707142729817
0.40705751721347360750
0.41914039454386708972
0.38188483784094823248
0.39406183813311596031
0.28871864003044883651
0.29054645955610691743
0.30609511680853546123
0.29373964947738184783
0.30918674406507939967
0.29209227318437885890
0.34032427208996457457
0.32320969444925001790
0.32475550807752195936
0.30764093043680740269
0.34806634754461596160
0.33249758353217340190
0.35580842299926740413
0.31695283660594342212
0.36335096887444889857
0.34026367607303742435
0.42304413821019859476
0.40918606384512817842
0.43440427704376377571
0.39551268392998306656
0.44581342965617887231
0.42073089712861866385
0.28071559393546918759
0.25662635979347336868
0.27837409610177249464
0.23253712565147757751
0.25428486195977667572
0.27603259826807580168
0.20856559373021738013
0.23030298527881387649
0.27368738076021903449
0.25205072158711294694
0.00000000000000000000
0.02323867289738670502
0.00000000000000000000
0.06967715332149819474
0.04644079575642424962
0.04645907077559882636
0.00000000000000000000
0.00000000000000000000
0.02322039787821212481
0.02322039787821212481
0.11668422648947296416
0.13962618845868901563
0.14045494209237377459
0.18547475166084353981
0.18635544151272989688
0.16257643816886707677
0.18807654571837378876
0.16426574390537379555
0.18721599361555185670
0.16340519180255183573
0.43087378720810876054
0.45577475755421359427
0.44349901471423713861
0.50537507484883514852
0.49316917102846341558
0.48057491620152437140
0.48096326720809168265
0.46836901238115263846
0.46909292473834285353
0.45609326954117612729
0.20944628358210373720
0.25755595354622734527
0.23439631315698550296
0.23346671940423152636
0.21123642943767964586
0.21037587733485768604
0.39495229291480477007
0.40519044747622834368
0.41901107107997914714
0.42541452078346558840
0.43914504219029770749
0.41525743303138762386
0.46725293904410686308
0.44313200506204297735
0.45319899061720225752
0.42907805663513842731
0.29401446433600159081
0.31139094111408821552
0.31668676541964096982
0.34584492874285338582
0.35136558539574219706
0.32873035110213882914
0.36231500226036927881
0.33950088384000509656
0.35684029382805571018
0.33402617540769158344
0.29635968184385841351
0.34197200855683984599
0.32162901485331041318
0.31915789013647566374
0.30117230439438980039
0.29883080656069310743
0.43670701899395658607
0.44806715782752171151
0.46173003861127964731
0.47065163001568777190
0.48408067776278151939
0.45924247740327261980
0.51170164630785430759
0.48671584245956700521
0.49789116203531791349
0.47290535818703061111
0.38343777266753753530
0.39598203058544462207
0.37589522679235598535
0.42147684499460369434
0.40113352059998508281
0.40872943779002413045
0.38079019620536647128
0.38838611339540551892
0.36055723414766549517
0.36829930960231693771
0.02357412161424907865
0.04679451949246120346
0.04714824322849815730
0.09326557068232180225
0.09361763047807146465
0.07002921311724785713
0.09434648080400387382
0.07074736201625100862
0.09398205564103767617
0.07038293685328481097
0.45591201621566512792
0.44457109338722344827
0.43179108223360129770
0.43302396919091357130
0.42027656198633400741
0.40749655083271185685
0.45043754040078864964
0.50064195881113982001
0.48958227131442527691
0.47565615496285246211
0.47841760517926606999
0.46436365675236146444
0.11777155191294869097
0.11740712674998249332
0.14119662302189350811
0.11703628628522261268
0.16463658437013364844
0.14082578255713362747
0.51797392781362339154
0.53057278077841163455
0.50576802399325160309
0.55672426542200437183
0.53189645002804386564
0.54364852310020794768
0.50706863463408335946
0.51882070770624744149
0.48214560845133869194
0.49401595092108752105
0.37728570213139761558
0.37181099369908410246
0.39225640200242595235
0.36607789080055430642
0.40686662349851482334
0.38652329910389621181
0.28771019368319461496
0.26271611549029788568
0.28595399250542730130
0.23772203729740112865
0.26095991431253057202
0.28419779132766004315
0.21289929150788744483
0.23605917522719332968
0.28245669263156458761
0.25929705224232280081
0.52290065329596990829
0.50909016902343351418
0.53409966028408539795
0.49557465619843243942
0.54541196285304494040
0.52058414745908443422
0.37041828658736120072
0.37852157091435317815
0.35007529288383176791
0.39440168097976574524
0.36595268047725471039
0.38646162594705946169
0.33750367997474373105
0.35801262544454848236
0.30910963695510645932
0.32956634741402707212
0.00000000000000000000
0.00000000000000000000
0.02357325246792699516
0.00000000000000000000
0.02357325246792699516
0.04714650493585399033
0.00000000000000000000
0.02357412161424907865
0.07074649286992892860
0.04714737408217607728
0.31085073565120191486
0.36778477870354420176
0.34116787642732271379
0.33933577820103322242
0.31443903505525866438
0.31268283387749140623
0.11882232400766118419
0.14224739511660600133
0.14329816721131849455
0.18913853725229926028
0.19020052878622473180
0.16569857590405911996
0.19248504329216403752
0.16789160525174126604
0.19134278603919438466
0.16674934799877161318
0.49270826065176376307
0.50387292678692296999
0.51816358225942071858
0.52582959456194533487
0.53995754281603625113
0.51476990706523073626
0.56912702816215243740
0.54364530521078657799
0.55454228548909434426
0.52906056253772848486
0.26385627373007819463
0.24000235377696177430
0.23886219553718146535
0.21624369853456290591
0.21510144128159325305
0.21396128304181294411
0.48095696771881379927
0.49466099639352073547
0.46961604489037211962
0.52253995675198205983
0.49723551463332460454
0.50860047657275142541
0.47193107251466714924
0.48329603445409397011
0.44670395875463542179
0.45825108295094529876
0.56830996146620460507
0.55523421914440818092
0.57989565751040483832
0.53006731787662519917
0.55475956090441524982
0.54266617084141344218
0.60392049712022999319
0.59190807731531736025
0.57934002901232262150
0.56732760920740998856
0.46736890032970063169
0.44107891256732550955
0.45599236406519383369
0.41478892480495038741
0.42970237630281871155
0.44461582780068703569
0.38855196353265986087
0.40352266340368814213
0.43304633639764533726
0.41843611490155652177
0.57038792543756655640
0.58405158545312862994
0.55907562286860701395
0.61251950038429126000
0.58733576781453344928
0.59828554291870994497
0.56215203524477574959
0.57310181034895224528
0.53692684077631502859
0.54812584776443062928
0.53434185304461723209
0.52040237286538659767
0.54614374933725240435
0.50641228932647075478
0.55763538874970242087
0.53215366579833656147
0.44924230547408139369
0.43111571061846221120
0.42295231771170627155
0.41275869579911395046
0.40481864076640772243
0.39665524785965178278
0.58002562962084913689
0.56544088694779104376
0.59092423107954583639
0.55105478903040605587
0.60172186573191854819
0.57653813316216084850
0.02378775046294328774
0.04736100293087028290
0.04757550092588657548
0.09457669169680485433
0.09480690258960582095
0.07097670376272990911
0.09539821934918406299
0.07148686013753531576
0.09510256096939494197
0.07119120175774619474
0.50901648689471712395
0.49549301703745207703
0.48371204477605961314
0.48143095868357632661
0.47005442241906958412
0.45827345015767706471
0.16821181662354167674
0.14393858995491928821
0.14361837858311887750
0.11966840465205166866
0.11937274627226254764
0.11905253490046216469
0.30939668157850219732
0.33612552295056630225
0.33108316947380983519
0.38934645334672046690
0.38429122571367518857
0.36272955107049897894
0.37449737379270453541
0.35279027163325715755
0.37939429975318983423
0.35768719759374251188
0.30187537433654704211
0.27434804644410593077
0.29820036778391501020
0.24682071855166487495
0.27067303989147395438
0.29452536123128297829
0.21965288092191445624
0.24341153616431332463
0.29111777745723876887
0.26726385750412240405
0.61655869388977202483
0.62919689065931405647
0.60454627408485950291
0.65572292125294784348
0.63101783098453823051
0.64245990595613089447
0.60631274071612872856
0.61775481568772139251
0.58151850306906660570
0.59310419911326683895
0.62321382267645231146
0.60897986521087110745
0.63390814496861347394
0.59518216308462867925
0.64481553311078065871
0.62011044284237115676
0.31280426535254640674
0.35636773340132560373
0.33823809300994667204
0.33466063124187828137
0.32005673367324682932
0.31638172712061485292
0.42626674870643588289
0.44462376352578408811
0.45813181643310596503
0.48112539516657754080
0.49488189000345444990
0.46299880031095830279
0.52244732741514599006
0.49028957192412597754
0.50866460870930019222
0.47650685321828023522
0.54934489076064685342
0.56114678705328202568
0.57614982476931164701
0.58419422967443046524
0.59926143118670838206
0.57270259026198044872
0.63011345820497544068
0.60313164148714348833
0.61468744469584191137
0.58770562797800995902
0.07155476620774675611
0.04771131306630944230
0.04764340699609800889
0.00000000000000000000
0.00000000000000000000
0.02385565653315472115
0.00000000000000000000
0.02385565653315472115
0.00000000000000000000
0.02378775046294328774
0.47070130078773120275
0.44654599715205056665
0.45140680473927757843
0.42239069351636987504
0.42725150110359688682
0.43211230869082395412
0.39844403365453717747
0.40334095961502253180
0.41325699483529487743
0.40820176720224954359
0.59519425187972840874
0.60609285333842510823
0.62126147559730449110
0.62744959598301985881
0.64237969158174845763
0.61665196133064714701
0.67358366111343004334
0.64742256835536726722
0.65798167634758919498
0.63182058358952652988
0.19300249560395066339
0.16848771545488230861
0.19280111860199999896
0.14397293530581395382
0.16828633845293167193
0.19259974160004936228
0.11968557732749901534
0.14395576263036663489
0.19254239244610671378
0.16826916577748432524
0.44512206256196495957
0.50948118380434792574
0.49651504019354980590
0.47732342831332785771
0.48360817049064053208
0.46431367444218685225
0.53690251202317340606
0.55126506729436486332
0.52337904216590847017
0.57988398200717561348
0.55165864033866895966
0.56557452465077018289
0.52343329867016219481
0.53734918298226352906
0.49540109949993138549
0.50946315785380713592
0.27466485657207229121
0.24745433880759759582
0.24713752867963123538
0.22022841720577412961
0.22002704020382346517
0.21971023007585710474
0.66292856257674404041
0.65227346404005792646
0.63676746981868115327
0.64119346112251673908
0.62576744761338320977
0.61026145339200643658
0.62839434765616797307
0.65286819819210595295
0.64103254442571000471
0.70164973185385870469
0.68988361547508625371
0.67725896502298232882
0.67811749909631391375
0.66549284864420998886
0.66692021017463087862
0.65365719487781404062
0.59275903357929871085
0.57844957622289339128
0.60563408515142191924
0.56370744603183831067
0.61787377167819867996
0.59089195496036683863
0.53701050714454190427
0.52322778843869610643
0.55157368687393770745
0.50915759433680829460
0.56572883444055666047
0.53750349277204989562
0.63783287025816193250
0.64852719255032309498
0.66314624013203260500
0.66982026693230845016
0.68391761261166905683
0.65891287879014126538
0.71381921685572924385
0.68848272849388092443
0.69886841473369920585
0.67353192637185088643
0.33181288410081627438
0.34999424343751606159
0.36175039386508550665
0.38622931969365875693
0.39796126559461297845
0.36809967930227982524
0.42168012554788103508
0.39171525970648324311
0.40982069557124700676
0.37985582972984921479
0.70380551840500538141
0.69379181995428151897
0.67846903004315706198
0.68368774053385572564
0.66808575576801498830
0.65276296585689053131
0.09548097953649589686
0.07152071598350558113
0.09544339577384322593
0.04756045243051527233
0.07148313222085291019
0.09540581201119055499
0.02378022621525763616
0.04763588274841235731
0.09540201568018730205
0.07155856253874999517
0.45841142510322496761
0.44612154941871873248
0.43425612146754433152
0.43390083748329988378
0.42204140750666585546
0.41017597955549145450
0.16861730664888546771
0.14423211769382029979
0.14410252649981714068
0.11985654861515809833
0.11981896485250542739
0.11968937365850225441
0.49913038230538658846
0.51203725200829586228
0.52755946382304197417
0.53792399269557311658
0.55340065797600024311
0.52495784908477505226
0.58470082125051670019
0.55613014253677928167
0.56905073961325847165
0.54048006089952105313
0.27714601428508828240
0.25607302332188175420
0.28333578824961080933
0.23500003235867519824
0.26226279728640422562
0.28952556221413328075
0.21400126398131291694
0.24122718558313638315
0.29570046827534013367
0.26848995051086543828
0.74001722804718639281
0.71239901949307438134
0.72314564604463171804
0.68478081093896236986
0.69552743749051959554
0.70627406404207693225
0.65744713457196890527
0.66852713748951009265
0.68992886257775354331
0.67927376404106742935
0.71441459186477251908
0.72717945187568633347
0.70264847548600006810
0.75441053004333136212
0.72974238720316364493
0.74079499095950884779
0.70507424436299603876
0.71612684811934124163
0.68039858280797194112
0.69159587172965497626
0.72377938596160151796
0.70882858383957136894
0.73373955506747379207
0.69449592848733254780
0.74407504255540257709
0.71940689971523497093
0.55174564104159262712
0.56630882077098854133
0.58104395466803937520
0.59498432051032856815
0.61008465901348152283
0.58082917294370961514
0.64011963922534176330
0.61058179694669056925
0.62510214911941164306
0.59556430684076044901
0.31933588750899305486
0.34927339727326228713
0.33679640068143906761
0.40929965520862937600
0.39691918486937771693
0.37933478936723163955
0.37203651977603924283
0.35441646022873918298
0.38447785232270847988
0.36685779277540842003
0.60824020813135071251
0.62111525970347392089
0.63659643425552592255
0.64608016721013750150
0.66204687621529956232
0.63384048068336074078
0.69394435797836051538
0.66527039611694327448
0.67799561709682998334
0.64932165523541274244
0.56722230632201986467
0.62625663455998181739
0.61239362989462187148
0.59671879228133062334
0.59854722557256923032
0.58289714393531100178
0.34828186693825691211
0.32452721410047458139
0.33066180739095685226
0.30083661419278140414
0.30702638815730393107
0.31316098144778614643
0.07163278228166285178
0.04778458502682979975
0.04767251872867253604
0.00000000000000000000
0.00000000000000000000
0.02389229251341489987
0.00000000000000000000
0.02389229251341489987
0.00000000000000000000
0.02378022621525763616
0.77934430698417955785
0.75278733968092714779
0.76248278005235881061
0.72623037237767473773
0.73592581274910640055
0.74562125312053817439
0.69990701674555233502
0.71001109616597812835
0.72972023498813376463
0.71970653653740979117
0.70588323449930578946
0.68993449361777525741
0.71782211102025095251
0.67341384357713096609
0.72891966953371867266
0.70130146097960666118
0.48606589477935913113
0.50143048877098705951
0.47377601909485289600
0.53256925815385192102
0.50475593223294523693
0.51699987346241949027
0.47694260631203855283
0.48918654754151280617
0.44931136592995979395
0.46153207786537864266
0.57161373944640436751
0.55852665764229203482
0.54304306073266706001
0.54554795789807197792
0.52997857320663954717
0.51449497629701457235
0.12139938843949965586
0.14577495751816185732
0.14731779734250341485
0.19465648086755055202
0.19631046613115041288
0.17027129191248535633
0.19968313465800846540
0.17350046600025592625
0.19799680039457945302
0.17181413173682691387
0.75010603437237266533
0.73323445236981799056
0.76019484069755904887
0.71625221820987583499
0.76976957384086930336
0.74321260653761689330
0.62334054663450366718
0.68074819612184467310
0.66755203426532871980
0.65207423426042732117
0.65383583674533518604
0.63881834663940506580
0.25781018741107625258
0.23847436053706422276
0.23673719644786972438
0.21907874759753634408
0.21739241333410730395
0.21565524924491280556
0.76520375972892140659
0.75158822064509878125
0.77599698941451134004
0.72600349893399851453
0.75035726601413821335
0.73876835894491232892
0.79914092932250058166
0.78756895936850601636
0.77474909766831934199
0.76317712771432477670
0.76912722390723886612
0.78384391777114648114
0.75879173641931019212
0.81580747273724152357
0.79021274966239662962
0.79982569525419400236
0.76461802658755173567
0.77423097217934910841
0.73921862172164054527
0.74917879082751270836
0.43667459850732126547
0.45166907146676149587
0.42429412816806960640
0.48185155330119427974
0.45435931458039613418
0.46676031238397786005
0.42686707585959804412
0.43926807366317976999
0.39945179781781864348
0.41189313036448788052
0.78848821636320021167
0.77162668943137946442
0.79763212574222086548
0.75511963985404495503
0.80671979923973125004
0.78112507616488624507
0.65503101590430912182
0.66994239258327636932
0.64116801123894906489
0.69959088212884568136
0.67081628649538171949
0.68476663735606102534
0.64204169086191764659
0.65599204172259706347
0.61337125605621722890
0.62721766037826975904
0.46430583888940002435
0.51990397535747789881
0.50723869256110376558
0.49209064943657115920
0.49454512293114905042
0.47945388201393263072
0.08729869508319879068
0.06539194600736566998
0.08934850128729099339
0.04348519693153253540
0.06744175221145787269
0.09139830749138320998
0.02174259846576626770
0.04563489097918116411
0.09343964351393954648
0.06959144625910650139
0.35927113215296097026
0.34650574452988269769
0.33551647931517863954
0.32080282993471687103
0.30988209045879255843
0.33365428723229978436
0.29896135098286819032
0.32273354775637541625
0.28805368263397823636
0.31174428254167141361
0.17159311671469124061
0.14350309877137404357
0.14541044805693872921
0.11540089692728641713
0.11745070313137861984
0.11935805241694330547
0.80890962413265099507
0.77993477998867433154
0.79171747392620794859
0.75095993584469766802
0.76274262978223128506
0.77452532371976490211
0.72245214691152903619
0.73439102343247431026
0.75727127588347564746
0.74617371737000792731
0.26871785575996620654
0.29048164979186280599
0.26016046964900874094
0.27956091031593843788
0.22992180215350860317
0.24931741509303648185
0.59980512305804922768
0.61490942486558164415
0.58671804125393678397
0.64531901165041782864
0.61711143559585335261
0.63011421825799973639
0.58890385954128887658
0.60190664220343526036
0.56073655884757034329
0.57371525859179040019
0.85102222685585948714
0.82306170536711020791
0.83277937776660071467
0.79510118387836092868
0.80481885627785143544
0.81453652867734194221
0.76755920596277360524
0.77764801228795998878
0.79694041783076075003
0.78736568468745049554
0.71020212345384448049
0.72645988892932844561
0.69700596159732852719
0.75827253759771362507
0.72857286442860824671
0.74236621326352103534
0.69887319125950275733
0.71266654009441565698
0.66949641524242231583
0.68321261276241573857
0.68592041264706149484
0.67224994316527719729
0.65714581701359742194
0.65878447740784751296
0.64357968401542942072
0.62847555786374964537
0.81224808759203259712
0.82535524586156450155
0.80067611763803792080
0.85401771791245639776
0.82900735212242637751
0.83968648188701044965
0.80399698633239624623
0.81467611609698042940
0.77920375818786380417
0.78999698787345384865
0.79392045205177130818
0.84416264247277261745
0.83430756703308872613
0.81915227668274248618
0.82505751988516506934
0.80907574240211754812
0.84102834983568774962
0.83103447281551601211
0.81306782834693847040
0.81997204847408355910
0.80277989826764040160
0.78481325379906285988
0.68440779192138956333
0.74356979115073706943
0.72886704470376051379
0.71387011798163158005
0.71422896341630304207
0.69940471864351838605
0.43073234087277856297
0.41604173191550408717
0.44356042084821167837
0.40135112295822955586
0.42886981189093720257
0.45638850082364484928
0.38669382136713437159
0.41410909940891382774
0.46912002706241956451
0.44162778834162141894
0.83288183376030888727
0.84995619478337625097
0.82379416026279850271
0.88662144683423238511
0.85957451075276725128
0.86828882080880431804
0.83252757467130211744
0.84124188472733918420
0.80593594082774089316
0.81507985020676154697
0.40321040669206920093
0.37568847251135978338
0.38851979773479466962
0.34824565122303829945
0.36109710852062126829
0.37392843374405615453
0.79663491565811561657
0.78436020718358023807
0.76766007151413895304
0.77131637239064687606
0.75541004805645428632
0.73870991238701311232
0.00000000000000000000
0.00000000000000000000
0.02187002483728592295
0.00000000000000000000
0.02187002483728592295
0.04374004967457184589
0.00000000000000000000
0.02174259846576626770
0.06551937237888531829
0.04361262330305219065
0.54774868601651349742
0.56292811387917496280
0.53508340322013936419
0.59332491431276357385
0.56542696620747978642
0.57812651409596926833
0.53752901810219611001
0.55022856599068559191
0.50969028570169516712
0.52238385533164999330
0.87803317393582758221
0.86944490103742289033
0.85098623785436244837
0.86023356394664118874
0.84199071485738241627
0.82353205167432208533
0.18951345746487763266
0.17934378027174677217
0.16142343952156040787
0.15868616316928008114
0.14080587514355946688
0.16901497172051344053
0.12292558711783882486
0.15113468369479279851
0.10511214110051880777
0.13321434294460643422
0.60632627176228937049
0.59112787154549506496
0.61932762921181516713
0.57591598671023191969
0.63232332043111649789
0.60411574437655202185
0.30746984638147834001
0.29413686282823986451
0.27714866623862433048
0.26728643850305527918
0.25037192991070211789
0.28071165066564757185
0.23345742131834892885
0.26379714207329441056
0.21657027798817868325
0.24680894548367882102
0.82367483257892704085
0.84820873583535350004
0.83678199084845905631
0.89782222580567949688
0.88633219704660293203
0.87301548082051649846
0.87484216828752636719
0.86152545206143993362
0.86442994309999132696
0.85009870707454537886
0.71392471718650907242
0.72825855224417235245
0.70025424770472477487
0.75719292338153332267
0.72918482673386897375
0.74272573781285289307
0.70117673008620473585
0.71471764116518854415
0.67324787086831128224
0.68671333662574096657
0.20640060079504785051
0.24011527438365573572
0.21294411026425619227
0.22320076579130254668
0.18581513671676813670
0.19614394526800149610
0.84169795030257033019
0.85094799745049398698
0.86758842786789924784
0.86972303767332104218
0.88542835743418568661
0.85986796223363715086
0.92052782721042381020
0.89405812753916147351
0.90297809232230474841
0.87650839265104241171
0.85877231132563780491
0.91203424598030791159
0.90354066475019212401
0.88556454630904568592
0.89508105579221219905
0.87674842976678424300
0.72775606602698195147
0.74239414731443931217
0.75592124992511822157
0.77207511222611080459
0.78587768685450798412
0.75737236577913424895
0.81280207462408937680
0.78436166227460379918
0.79933988073929862495
0.77089946838981315835
0.54158362252910297041
0.51384288420865020797
0.52666146273157954383
0.48610214588819739001
0.49892072441112667036
0.51173930293405600622
0.45841724338048794873
0.47124532335592111965
0.49679542811762511523
0.48406390187885040000
0.86571146989075853373
0.88040071292565758032
0.85571759287058679622
0.90945730346331443705
0.88413292818226141279
0.89492900819448606420
0.85880855290120838852
0.86960463291343303993
0.83385908851692969179
0.84492151285836225583
0.55456810394040678691
0.53964594414288336033
0.56755258535171060341
0.52463416051812605811
0.58043874983223708863
0.55254080172695330120
0.88888947519904992767
0.85590003369991696225
0.86925081872320109078
0.82291059220078388581
0.83626137722406812536
0.84961216224735236491
0.79059156489924875544
0.80363539969218211745
0.82926089319000162448
0.81698618471546624598
0.41782339260384548929
0.40491444433491241561
0.39030145842313612725
0.37889410640490317483