VARIABLES = "X", "Y", "P", "U", "V", "L2Error", "divergence", "vorticity"
ZONE NODES=2001, ELEMENTS=3840, DATAPACKING=BLOCK,
VARLOCATION=([6, 7]=CELLCENTERED),ZONETYPE=FETRIANGLE
-1.00000000000000000000
-0.97704463918590045424
-1.00000000000000000000
-0.95408927837180101950
-0.97704463918590045424
-1.00000000000000000000
-0.90738173449478676247
-0.93075589308088368945
-0.93073550643329383547
-0.95413005166698072745
-0.95410966501939087347
-1.00000000000000000000
-1.00000000000000000000
-0.97706502583349030822
-0.97706502583349030822
-0.96452357935816557255
-0.92904715871633114510
-0.94156821854406613781
-0.85522590355636352033
-0.86840031455982247266
-0.89213653113634738823
-0.88157472556328142499
-0.90531094213980622953
-0.89447823002903414924
-0.91783200196754122224
-0.90203610896748132042
-0.89669048344017587837
-0.92541026755357824740
-0.88560416626977667143
-0.91468702894408071558
-0.89114732485497627490
-0.94376989161838475972
-0.92023018752928031905
-0.97188494580919237986
-0.94894997164268279910
-0.87732699783458467646
-0.86442349336883195221
-0.84727226117438259045
-0.83744490952311334553
-0.81966391548986317073
-0.85061932052657229786
-0.78238538372535026966
-0.81482882244986643006
-0.80102464960760677570
-0.83346808833212282508
-0.87198137230727923441
-0.80886101459342318876
-0.83533664546149610786
-0.84130445331793934916
-0.86047040586563638964
-0.86601356445083599311
-0.91479059063972345545
-0.94397701500967023946
-0.94387345331402749959
-1.00000000000000000000
-1.00000000000000000000
-0.97198850750483511973
-1.00000000000000000000
-0.97198850750483511973
-1.00000000000000000000
-0.97188494580919237986
-0.81500011029948327135
-0.77477431704260313339
-0.79721911626623320757
-0.68763884134767427891
-0.71187969916464977072
-0.73120657919513876166
-0.73612055698162526252
-0.75544743701211425346
-0.75925297035348782160
-0.77789223623574421662
-0.84520862375444005821
-0.82007486335029977642
-0.80481308123910344499
-0.76630889203885943495
-0.75023240035236871126
-0.79278452290693235405
-0.71700027225697915423
-0.76090667674804124410
-0.73361633630467393274
-0.77752274079573613363
-0.88299954403883673670
-0.88039492180789680198
-0.91218596840878352072
-0.87509219853817843404
-0.90706792930135726749
-0.87774356017303767352
-0.93904366006453621196
-0.90971929093621650697
-0.96952183003226810598
-0.94151033753710322571
-0.84260400152350012348
-0.75805516787498161690
-0.79911006349298419060
-0.80196157236604381779
-0.83710113101558136783
-0.83975249265044049629
-0.60455884720118846509
-0.65080250304420617091
-0.62578662811409668798
-0.69704615888722376571
-0.67203028395711439380
-0.64701440902700491087
-0.73971577130628696217
-0.71658335793442451411
-0.66732662518733953938
-0.69156748300431503118
-0.68948067439752569463
-0.70609673844522047315
-0.66196107653807223503
-0.72363927961979623849
-0.63325996186963040557
-0.67950361771264800037
-0.90702372055408519991
-0.93895524256999196577
-0.93899945131726414438
-1.00000000000000000000
-1.00000000000000000000
-0.96947762128499603840
-1.00000000000000000000
-0.96947762128499603840
-1.00000000000000000000
-0.96952183003226810598
-0.57692517468899384703
-0.59815295560190206992
-0.54929150217679922896
-0.64047075000533293387
-0.59330265866299158883
-0.62015853384499819434
-0.49107827000006715190
-0.52018488608843316268
-0.54219046433152939812
-0.57129708041989535339
-0.73183823646133161489
-0.76928470528967163311
-0.72829933162018734016
-0.80673117411801176235
-0.76574580044852735838
-0.72476042677904295441
-0.84091168632809509820
-0.80292061880549803199
-0.72088034951801105432
-0.76193524513601351700
-0.58035787433029240034
-0.55615690145939644662
-0.60905898899873434083
-0.50523949460386086141
-0.56013631976663003087
-0.53069819803162865401
-0.61503314492939931135
-0.58559502319439782347
-0.66601670859318917728
-0.63849711073373582870
-0.87633430418901692160
-0.90807171771088590617
-0.87603794128124579110
-0.93980913123275489074
-0.90777535480311477567
-0.87574157837347466060
-0.96990456561637738986
-0.93938218690137342826
-0.87541688845582654732
-0.90734841047173331319
-0.84153627440329825671
-0.84123991149552712621
-0.80673824461757959181
-0.84123637624574321148
-0.76928824053945565886
-0.80673470936779567708
-0.68013980601513579494
-0.64327933977329254667
-0.68401988327616769503
-0.56404881765866676790
-0.60729346682278861902
-0.60366407871597971280
-0.65053811598691047013
-0.64690872788010156391
-0.69118817622412098700
-0.68764927138297671227
-0.62915624235134592901
-0.52014825121430274812
-0.53505700782474452382
-0.57504507637707191758
-0.54955291274170559035
-0.58916817379901853524
-0.55381750648895100575
-0.52618383397675638768
-0.50307616577671365743
-0.46712351044575828318
-0.44316875089144946998
-0.49623012653412434947
-0.39305757474045882605
-0.44806687025858626949
-0.41811316281595412025
-0.47312245833408156370
-0.52961653361805505202
-0.42179689400665326682
-0.45053621327284770759
-0.47680618952478071026
-0.47788785393835431226
-0.50334655736612210486
-0.90797018408932617106
-0.93960606398963553154
-0.93970759761119526665
-1.00000000000000000000
-1.00000000000000000000
-0.96980303199481776577
-1.00000000000000000000
-0.96980303199481776577
-1.00000000000000000000
-0.96990456561637738986
-0.84251035849399769084
-0.80771232870827902595
-0.80868641279897846008
-0.73245435944127046390
-0.73307048242120920190
-0.76990436351939439685
-0.73387998913693963665
-0.77128320096795910388
-0.73347523577907436376
-0.77087844761009383099
-0.36057013246180297239
-0.38562572053729826660
-0.32808269018314711873
-0.43556829340947922358
-0.38005831681889129525
-0.41161353385517041037
-0.25996855428758192108
-0.29402562223536454766
-0.32001343555323658041
-0.35407050350101920699
-0.56639829918385853347
-0.56874778070905018801
-0.60964294834798038458
-0.57239462915017758071
-0.61400398097804897990
-0.57057120492961388436
-0.65561333280592037909
-0.61218055675748528355
-0.69372578463362599699
-0.65307572439641536910
-0.48109055100420922146
-0.45694160740455758152
-0.49599930761465105267
-0.40541875559727441614
-0.44619446538265206126
-0.43118018150091597107
-0.48697017516802965087
-0.47195589128629361619
-0.52550949641334820939
-0.51101359149638714285
-0.61385597331812880029
-0.65531731748608001986
-0.65546532514600019947
-0.69459865331150982826
-0.69419389995364455537
-0.69434190761356484600
-0.36862065730495485738
-0.34418373986945088872
-0.39735997657114929815
-0.29275372949844452597
-0.34778430458981801632
-0.31846873468394770734
-0.40281487968119150667
-0.37349930977532119769
-0.45402718714252621179
-0.42667554647701960713
-0.87637999643098907221
-0.87642568867296122281
-0.90801587633129843269
-0.87652429963950284630
-0.90830049189487072070
-0.87647499415623197905
-0.94007668415023859509
-0.90825118641159985344
-0.97003834207511929755
-0.93984137406993706332
-0.84226151354080736056
-0.84221220805753660432
-0.80799872744211198583
-0.84255605073596984145
-0.77093935828952586675
-0.80834257012054522296
-0.42987824354287451634
-0.32157380270848689996
-0.35039387591852921844
-0.37660437779986033480
-0.37790631575790178953
-0.40366774166154339998
-0.23200662465024418646
-0.20404469501290645184
-0.26606369259802675753
-0.14641381130714883896
-0.20996552174522226109
-0.17522925316002763152
-0.27351723218329571097
-0.23878096359810108140
-0.33328740346187724075
-0.30079996118322138710
-0.40322066501778319747
-0.44642873982167774471
-0.44467782213878132014
-0.48963681462557223645
-0.48788589694267581187
-0.48613497925977944281
-0.53101572188787493634
-0.52919229766731123998
-0.52509189845922310536
-0.52744137998441487092
-0.40395344139041866605
-0.44541059851141684423
-0.40468621776305419013
-0.48655257721390454684
-0.40505248668016430313
-0.44582819646554194826
-0.25691852842929235878
-0.28263353361479554016
-0.22108332736014021935
-0.30885048602637332760
-0.18374856933364452916
-0.24730027977171797904
-0.56852918128013640864
-0.61121838179200238539
-0.56908874319305280398
-0.65390758230386836214
-0.61177794370491878073
-0.56964830510596919932
-0.69389378572040394388
-0.65461244989497413549
-0.57102146712807333451
-0.61248281129602455408
-1.00000000000000000000
-0.97003834207511929755
-1.00000000000000000000
-0.90819675369591790215
-0.93986920775233306902
-0.93997294595128577654
-1.00000000000000000000
-1.00000000000000000000
-0.96993460387616647900
-0.96993460387616647900
-0.73264639947780385576
-0.77022220734935542552
-0.73261891734326867187
-0.80779801522090688426
-0.77019472521482024163
-0.73259143520873359900
-0.84216115743020480977
-0.80789837133150943504
-0.73323571217283656232
-0.77029508132542279242
-0.11032060517589237225
-0.13913604702877119257
-0.07422739904463591942
-0.19618916497725288894
-0.13240977566692385681
-0.16822723533991515432
-0.00063987049902320466
-0.03743363477182955895
-0.06652482308297352764
-0.10331858735577989505
-0.61065833895833798728
-0.65278749663653945490
-0.65334753947020396403
-0.69271694805717165533
-0.69268946592263658246
-0.69324950875630098057
-0.23415190003392716278
-0.27777620795173824098
-0.24897681036565158519
-0.32140051586954931917
-0.29260111828346269114
-0.26380172069737600760
-0.36340963573341189541
-0.33589719589403926880
-0.27827772509791026678
-0.30709779830795258526
-0.39549989995343254323
-0.44046098574492364985
-0.39716174952789706776
-0.48542207153641481199
-0.44212283531938817438
-0.39882359910236153677
-0.52890835034329619635
-0.48752944308099355197
-0.40102213206007236712
-0.44423020686396685885
-0.27726585639966927488
-0.32037981276541133147
-0.32089016431748029756
-0.36180023889159729222
-0.36253301526423276080
-0.36304336681630178241
-0.43934893912410899475
-0.48319797829478550177
-0.48431002491560015688
-0.52586357978746089969
-0.52642314170037729504
-0.52753518832119206117
-0.22692714288184645532
-0.19109194181269431589
-0.16110055626524841244
-0.11631530006670477706
-0.08621678882626071516
-0.15365005809320048114
-0.02659916378913984580
-0.09384986002719412912
-0.05640797630770028048
-0.12365867254575456380
-0.87662619582211687153
-0.90826647451734410232
-0.87646165356325755891
-0.93990675321257144414
-0.90810193225848490073
-0.87629711130439824629
-0.96995337660628577758
-0.93988798048245225658
-0.87641070547195054630
-0.90808315952836560214
-0.84224428889423585964
-0.84207974663537654703
-0.80786238196635484776
-0.84204756326265250976
-0.77025439072207935176
-0.80783019859363092152
-0.18332516114419733499
-0.19815007147592172965
-0.13249842225446747945
-0.21245113848131219614
-0.07954879302180366263
-0.14679948925985794594
-0.07884198342284165495
-0.04274877729158518824
-0.01127015553853446400
0.03079232118546403746
0.06222451286995128034
-0.00600144308734231954
0.12405146975676979715
0.05639065710911767004
0.09313799131336053527
0.02547717866570840817
-0.56700290371293815550
-0.60952613566786828514
-0.56678410067118867310
-0.65204936762279841478
-0.60930733262611891377
-0.56656529762943930173
-0.69234788355030119078
-0.65241843212966887933
-0.56754723945478779967
-0.60967639713298937831
0.01079542025943448780
-0.01901339225912594688
0.04819000430800882140
-0.04874347218239759305
0.08612073703238931621
0.01845992438473717870
-0.23014876920893281853
-0.22614563838393847428
-0.27326272557467490287
-0.21868618101231651618
-0.26504745599391088540
-0.22241590969812749523
-0.31140873097550525461
-0.26877718467972189220
-0.35731469799664422604
-0.31589427187045826528
-0.35183771321877016502
-0.35349956279323468955
-0.30817552648410778682
-0.35511616503893339569
-0.26343085374821217926
-0.30979212872980654847
-0.38909028508884446751
-0.43445443439981357159
-0.39013922467567385688
-0.47981858371078262016
-0.43550337398664296096
-0.39118816426250330176
-0.52417388249545948664
-0.48150828100278408872
-0.39334403210796792250
-0.43719307127864437401
-0.90838291557595418624
-0.94013963532979161197
-0.94002319427118152806
-1.00000000000000000000
-1.00000000000000000000
-0.97006981766489586150
-1.00000000000000000000
-0.97006981766489586150
-1.00000000000000000000
-0.96995337660628577758
-0.43405899211294690643
-0.47902769913704934535
-0.47942314142391595500
-0.52301530142499375042
-0.52279649838324426803
-0.52319194067011098870
-0.84241755147818486726
-0.80803564455030385538
-0.80820890713425297402
-0.73270179291392922849
-0.73275718635005460122
-0.77030978415820472449
-0.73422462025782830874
-0.77121676369604064138
-0.73349090330394139947
-0.77048304674215373211
-0.61017703836958159247
-0.65335117302622502944
-0.65270027032451172211
-0.69378789664202666909
-0.69305417968813975982
-0.69240327698642656351
-0.18373463402896955676
-0.13290789513923972898
-0.13331736802401197850
-0.02825634049777952725
-0.02991351720641920869
-0.08120596973044334754
-0.03294161092757939141
-0.08312948947579568149
-0.03142756406699930005
-0.08161544261521559707
0.15813054102679008350
0.12721706258338083551
0.19220961229681038374
0.06520247182717278656
0.13104481415336877159
0.09663466351166002943
0.25848556515319703886
0.22534758872500371130
0.19476518965328290522
0.16162721322508957766
-0.17973150320397524027
-0.08003210116094176818
-0.12712259139430415189
-0.13021997970915805132
-0.17290438620331033404
-0.17663411488912131309
0.15767194275574150653
0.19129241575471322978
0.11974121003136102559
0.25587114589865994629
0.18590997203291920181
0.22358178082668658804
0.11594879816717842957
0.15362060696094581580
0.04467481718901929189
0.08206940123759362549
-0.20998340287892428013
-0.25644382127780146474
-0.21183377349796539413
-0.30290423967667862160
-0.25829419189684255098
-0.21368414411700648037
-0.34920206981505558241
-0.30553988308039320421
-0.21618516256466149827
-0.26092983530055713359
-0.34454680298673101557
-0.34559574257356040494
-0.30000332088461750812
-0.34704620196959096168
-0.25499336188177090801
-0.30145378028064806486
-0.87673006190085056577
-0.87683392797958426002
-0.90848678165468799151
-0.87704517502202006263
-0.90849917612830310976
-0.87693955150080216132
-0.93995317723458615689
-0.90839355260708520845
-0.96997658861729307844
-0.94004640628218893994
-0.77172826788620729754
-0.80923191551458628634
-0.80872041132441963018
-0.84313854526830311897
-0.84303292174708532869
-0.84252141755691867253
0.01801218410791111807
0.06262353200496208194
0.01635500739927143662
0.14882127686430901559
0.10314230465334614517
0.10572240443463554183
0.05746333244238326088
0.06004343222367267141
0.01226086075740193473
0.01377490761798202609
-0.38553868808637820065
-0.43153357645883344551
-0.38588137060428961966
-0.47752846483128869037
-0.43187625897674486453
-0.38622405312220109419
-0.52226568427211339518
-0.47827808198416899010
-0.38765716910552278085
-0.43262587612962521977
0.08928616508607026270
0.22920638821945943375
0.20254163054025894897
0.15924521435371868927
0.17568145370228399615
0.13258258127261052239
-0.57186240850853853335
-0.61356398859854310857
-0.57023967627537375247
-0.65526556868854779481
-0.61194125636537832769
-0.56861694404220897159
-0.69474509447318810729
-0.65430837085738646763
-0.56780992387757356354
-0.61098405853421700051
0.28965190762157871918
0.32081825008996039950
0.25651393119338539162
0.38033733003580849630
0.31807958553050125206
0.35057779006288447565
0.25582184102519400781
0.28832004555757717590
0.18993665539098189554
0.22401572666100219577
0.22355712838995361880
0.34983102068938931595
0.31932471134297008009
0.28757327618408201619
0.28759792862081501319
0.25530856354884168269
-0.17044877679787556746
-0.12466698198886938531
-0.12221137258343461873
-0.03131179432720406636
-0.02968197772682874477
-0.07840228456056644313
-0.02664680814697472158
-0.07442909036520467536
-0.02816439293690173318
-0.07594667515513167655
-0.16794775835022054955
-0.07278552509104431467
-0.11892424203511391123
-0.12056780730927427192
-0.16445382245701908874
-0.16630419307606020274
-0.43291244060078504230
-0.48028619311519188395
-0.47890732897324028716
-0.52607430081186523640
-0.52445156857870045553
-0.52307270443674880323
-0.34299165950763266242
-0.29844817740551915497
-0.29689303392642080182
-0.20805801811048274530
-0.20613263334204121047
-0.25306797711332934542
-0.20363859814581489194
-0.25026581603611786075
-0.20488561574392805120
-0.25151283363423099226
-0.90860559592540046658
-0.94016601682878087054
-0.94005959703168351371
-1.00000000000000000000
-1.00000000000000000000
-0.97008300841439043527
-1.00000000000000000000
-0.97008300841439043527
-1.00000000000000000000
-0.96997658861729307844
-0.34010011183647331778
-0.34044279435438473680
-0.29466153558656843492
-0.34155854352431092025
-0.24915006686619167731
-0.29577728475649461837
-0.73613099351618849209
-0.77262310518294319284
-0.73575306606182488967
-0.80911521684969789359
-0.77224517772857959041
-0.73537513860746128724
-0.84308019593585892260
-0.80917356618214208996
-0.73479987943264479799
-0.77230352706102378679
-0.61471415955292196820
-0.65756591059730540305
-0.65641573964292665444
-0.69684845205674694757
-0.69647052460238334515
-0.69532035364800459654
0.15289858364172673189
0.15697589041914444818
0.10721961143076386147
0.16491055477196270296
0.11605447713462560544
0.16094322259555357557
0.06719839949728850792
0.11208714495821647805
0.01712839428485455825
0.06233086596983588440
0.20588781285541718491
0.23274798969339216548
0.26295434884652535423
0.28605400606899011873
0.31623686623932034667
0.25938924838978966170
0.37280613531055295518
0.31788024207853915470
0.34452150077493665092
0.28959560754292285045
0.01875821088522987984
0.11668166581206323995
0.06845277685216379082
0.06782558817472614243
0.02090298435259453635
0.01938539956266752129
0.31870465639063860763
0.37892374762808012090
0.34987099885902028795
0.49046833144520363135
0.46364122839195598402
0.43469603953664187612
0.43681412533870839221
0.40786893648339428431
0.40857572768725847201
0.37881618771433439585
0.31758776079353623345
0.34931454351569124483
0.37930437568841246510
0.40973161816187475548
0.43912590628794095915
0.37922530881545551962
0.49487148182152029818
0.43708792875496638164
0.46699869405473060091
0.40921514098817668437
-0.16330824223382578442
-0.11777866181192062078
-0.11663308158872731646
-0.02576553197764884159
-0.02488425580832296161
-0.07190424892171844162
-0.02331831143376222187
-0.06997569651124477264
-0.02410128362104259347
-0.07075866869852513730
-0.16138285746538427734
-0.06838095850229383710
-0.11344360557082544538
-0.11503834357977638092
-0.15854110185832015478
-0.15978811945643334180
-0.38185461382869589908
-0.43040614250495234927
-0.38251184300727175680
-0.47895767118120874395
-0.43106337168352815148
-0.38316907218584761452
-0.52541003984487366640
-0.47962193214820031395
-0.38435388013611293534
-0.43172763265051972148
0.20996511963283490121
0.32092214078479225359
0.26903814625903155200
0.26599624755277845312
0.21697435051549712748
0.21300701833908800009
0.34777062096386640588
0.46516052968903265352
0.43544957755654500886
0.40737697662247873698
0.40412785643354898202
0.37584322189793267777
-0.87611278784480661752
-0.90778198930036124725
-0.87637801518940250389
-0.93945119075591587698
-0.90804721664495713362
-0.87664324253399839026
-0.96972559537795799400
-0.93980860379234831825
-0.87684420877800928196
-0.90840462968138968591
-0.77272003851111947803
-0.80930908350605057500
-0.80921215017787417878
-0.84271093567542854075
-0.84297616302002453814
-0.84287922969184814193
-0.19053373477164967098
-0.23990185208237319037
-0.19358871801972110660
-0.28926996939309673751
-0.24295683533044462599
-0.19664370126779251446
-0.33740432873973746908
-0.29196575248983258621
-0.20014114970680368932
-0.24565261842718047469
-0.58905890330940269273
-0.62698933454442562496
-0.58501717523074781013
-0.66491976577944855720
-0.62294760646577074237
-0.58097544715209292754
-0.70052537964781858015
-0.66124283818837703564
-0.57641892783031578595
-0.61927067887469910978
-0.33402186314874493522
-0.33467909232732073743
-0.28618911246879391586
-0.33621952078947214826
-0.23836142362022177954
-0.28772954093094532668
0.16451256758757198950
0.16411458040318130380
0.11628367862767255425
0.16428568452344605166
0.11684991102866239265
0.16420013246331366386
0.06941413753387873364
0.11676435896853001872
0.02138366469345200777
0.06893345719302126917
0.43788921536350583485
0.46612761301495575506
0.49544110069120317341
0.51889479230365298523
0.54732125316210233912
0.49206768925040533791
0.60126162119720616417
0.54835136094420466879
0.57429143717965425164
0.52138117692665275626
-0.53897752974876589338
-0.53493580167011101079
-0.48889615618812903852
-0.52996655916665080799
-0.43537538500841244105
-0.48392691368466889124
0.52234697135796270828
0.49447418359117301101
0.54982246089440500736
0.46728350348957203853
0.57554204104580564128
0.52263178079280403487
0.02226494086277788775
0.11734021182164425245
0.07039473911984243937
0.06990443832686057957
0.02353821384304010875
0.02275524165575974062
0.36950701511337902261
0.36620789491620503453
0.31762302058761826551
0.36077992690711346846
0.31247029866352293848
0.36349391091165927925
0.26416067041993240849
0.31518428266806874927
0.21453561259594755573
0.26659940833948198025
-0.15835259127361983600
-0.11325509498612509884
-0.11306658440142476618
-0.02280836587029771295
-0.02229842030683320403
-0.06787101293882932818
-0.02142819857814427104
-0.06724739148978452208
-0.02186330944248873753
-0.06768250235412898164
-0.15485514283460863338
-0.06345422198784340939
-0.10548024539754255469
-0.10927341489948366737
-0.14800699008459611283
-0.15106197333266752070
-0.90781589756720648676
-0.93951900728960635600
-0.93948509902276111649
-1.00000000000000000000
-1.00000000000000000000
-0.96975950364480323351
-1.00000000000000000000
-0.96975950364480323351
-1.00000000000000000000
-0.96972559537795799400
0.42670192742415136156
0.45802364854714738840
0.48059771953774982345
0.51687634076102928482
0.53888119970053838248
0.48716538862854169567
0.58169814762915938999
0.53114793358345457897
0.56028967366484883073
0.50973945961914413072
0.21413762541155684227
0.31169659691414219882
0.26261326692117098469
0.26338696867055166884
0.21344947572230851818
0.21336392366217615812
-0.73246334941776969352
-0.72879570531935078392
-0.76905239441270067946
-0.72063298712646317590
-0.76092088367714505459
-0.72471434622290697991
-0.80120878022782682226
-0.76500224277358874758
-0.83866078403631671989
-0.80525893186693875414
-0.62335100809314836212
-0.65764311287689392049
-0.66128143932817118333
-0.68913805000167860371
-0.69321940909812229670
-0.69685773554939967056
0.62343473292895379423
0.59646454891140177068
0.64560784466070131327
0.54190965406757540812
0.59335097668994707387
0.57033611492602465098
0.68786824111054745146
0.66673804288562443787
0.64060960890024731818
0.61947941067532419357
0.42023327422485157179
0.46766041313915013289
0.41693415402767758371
0.55862234751727379845
0.50995125465952928501
0.51314138032821199342
0.46128016180178471606
0.46447028747046742447
0.41103004435444912001
0.41374402835899487529
-0.17490508691451028822
-0.15927643905737090546
-0.22273277576308242454
-0.12678912858423482812
-0.19171130057519886192
-0.14303278382080286679
-0.25663347256616286796
-0.20795495581176687283
-0.31924404319742938352
-0.27141129251747841966
0.55293198483801675458
0.58040747437445916468
0.61099248785451321098
0.63096031654357587204
0.66065901188994557991
0.60524073639217523812
0.71737998000409430865
0.66418623392930375982
0.68901949594701994428
0.63582574987222939544
0.47412906633844997817
0.57621721140516524162
0.57073627518117109325
0.52566699735946043059
0.56467931134922244585
0.51919834416016064083
0.02257930762429282215
0.06943583290109514583
0.06847692668234786617
0.16304075687545122042
0.16179582922745638918
0.11609528417364942121
0.16040546054038173907
0.11444119361136480262
0.16110064488391906412
0.11513637795490212767
-0.56712020309906896465
-0.51703882953843216530
-0.54518150288873523657
-0.41225301769334987689
-0.44265142155800385471
-0.46577378887306641886
-0.50002068882058881005
-0.52260109585466207882
-0.47133605518929633238
-0.49391646222336954564
0.11519091059574336489
0.06997636065110499071
0.06922664366672642844
0.02427408103648035984
0.02383897017213589334
0.02308925318775733107
0.61707236724673553141
0.59566389328242497214
0.65244658686431156180
0.57493684377752574122
0.68491328343420287972
0.63171953735941244190
-0.87862806373329094267
-0.88114333962177526782
-0.91033117345569081191
-0.88615692365906550965
-0.91518936706318232410
-0.88365013164042038873
-0.94422181046729902754
-0.91268257504453709217
-0.97211090523364951377
-0.94187040887845263626
-0.14772121956383882369
-0.10519447487678527942
-0.10490870435602800415
-0.02051505849747430402
-0.01960191841680433700
-0.06254108190717344584
-0.01777239248870573010
-0.06134054842236686539
-0.01868715545275503181
-0.06225531138641617057
-0.76366068985560142668
-0.80668839258473967746
-0.80394858640628319435
-0.84642265812190253804
-0.84391586610325752815
-0.84117605992480104504
0.35818501828275062238
0.35559010965838777629
0.30910168828977935274
0.35267293152000089851
0.30580952962058471911
0.35413152058919433740
0.25894612772116848420
0.30726811868977810249
0.21161590612230726793
0.26077969732116973445
-0.60141230788281463404
-0.55760770292004591120
-0.61519471701950301235
-0.58018810995411906895
-0.66791385207298303861
-0.63641891494819846642
-0.16026777457184487874
-0.19374642055945492936
-0.22518994656280888478
-0.26059138316590801931
-0.29186108764481100142
-0.22716890186268146046
-0.32313079212371392801
-0.25843860634158444256
-0.35249270297620494130
-0.28988213234493842574
-0.13209257170669946868
-0.04473124101830560501
-0.07169008954790548338
-0.08829939695196674376
-0.09923960906607015575
-0.11548326430263819442
-0.32248319328417662799
-0.38437500340244523667
-0.35375289776307961009
-0.44219784611151702336
-0.41351321248022454569
-0.38289110684085891911
0.78184480898756902878
0.73862312768940285856
0.75891033154931675231
0.69540144639123657733
0.71568865025115058209
0.73597585411106447584
0.64833153379422137075
0.67050464552596888979
0.71192204761080590814
0.69079184938588289455
0.21037097847431243669
0.30487062388624630582
0.25706831625249165763
0.25800722198683007091
0.20873688839643669835
0.20943207273997402340
0.76599357098104281505
0.75014233297451671234
0.72277188968287664483
0.73376115648930551050
0.70540067243223114613
0.67803022914059107862
0.55494845657320202026
0.55127456562913024207
0.50627736371545750682
0.54568493238521864619
0.50004399245834940668
0.54847974900717444413
0.45440305253148011166
0.50283880908030520462
0.40759148971929681782
0.45784160716663241386
0.61996318247748738450
0.65822821732581537901
0.61448224625349323613
0.73017438114875132804
0.68913629816820498597
0.69420129923728335353
0.64809821518765875492
0.65316321625673712248
0.60336028135246633219
0.60941724518441486858
0.14798990488442420599
0.10536075802915989552
0.15092879869994230146
0.06273161117389559893
0.10829965184467801875
0.15386769251546042470
0.02065170629787566395
0.06635398591250030176
0.15713657652792106800
0.11192202658328270770
0.65533740209506352592
0.72080557903293729360
0.72423117806178038958
0.68833888246304597569
0.72720277960526580330
0.69122969769379793981
0.49794083704761032960
0.45019674171000201301
0.45229989712074103458
0.40143483661500145576
0.40289342568419489465
0.40499658109493397173
0.02398837273950651244
0.02307360977545720726
0.06574913796771875152
0.02156484637854563097
0.10686952142607147875
0.06424037457080716829
-0.91509193577677194753
-0.94402694789447827439
-0.94412437918088865096
-1.00000000000000000000
-1.00000000000000000000
-0.97201347394723913720
-1.00000000000000000000
-0.97201347394723913720
-1.00000000000000000000
-0.97211090523364951377
-0.52672850954724670380
-0.55343633027390459755
-0.58431552364670380495
-0.60351974266288044291
-0.63349801893985069334
-0.57847803646839257574
-0.66347629521682083276
-0.60845631274536271516
-0.69205464117164194882
-0.63933550611816192255
-0.78307148986719887773
-0.80950351718980684268
-0.76770023906309614592
-0.83593554451241491865
-0.79413226638570422189
-0.75232898825899341411
-0.86104623408574021415
-0.82131196854857724254
-0.73648098769272829500
-0.77950869042186654578
0.01205968186237384339
0.04189175621345341688
-0.01489916666722603325
0.10288907290241514070
0.04552009086734348786
0.07239041455793428226
-0.01184889116772816844
0.01502143252286262422
-0.06931900987598149655
-0.04176949035781682418
0.80064311402925159022
0.77770863659099931375
0.81944141907093415167
0.73142758306834820825
0.77498692502614896505
0.75548138956860677595
0.85531146514638511924
0.83737644210865957994
0.81514919508626704214
0.79721417204854150285
-0.74010515965344270128
-0.72473390884933985845
-0.69713882943968641381
-0.70790264173790706792
-0.65032928605128348387
-0.68030756232825362328
-0.09517947580578091371
-0.06356982302732699930
-0.12865812179339097820
0.00209903522575323074
-0.06438035980054605811
-0.03073539390078688580
-0.13085975482684533699
-0.09721478892708616815
-0.19572556899637666428
-0.16230308769315013318
0.20626879457237681792
0.25460022242843177720
0.25213212860437189677
0.35000606392886379759
0.34733919633772675217
0.30220375629510920490
0.34404366236866945616
0.29808789548652070422
0.34569142935319807641
0.29973566247104932447
0.60117438090695141106
0.64372641429662913470
0.59750048996287974390
0.72447726491214980982
0.68118710691677497593
0.68410183960438941675
0.63789694892140014204
0.64081168160901458286
0.59179094065330939411
0.59458575727526519206
0.72601654058067488506
0.68564111527291449200
0.72755581624919984929
0.64591231474214394481
0.72886509869897553315
0.68782701571842930210
0.80834525349814945194
0.83484569800872976408
0.79249401549162323821
0.88516861698314464046
0.84492890603175885289
0.86000715749593714676
0.80468919508037317634
0.81976744654455147021
0.76103458754223374250
0.77741576402744494434
0.19755965603698963373
0.20049854985250775696
0.24712940718955506147
0.20299991055991617461
0.29558653477911223106
0.24963076789696347912
0.05382044709058608767
0.13691224911885652160
0.12583459335328880946
0.09579186566050378049
0.11436183312785197508
0.08386317478337111664
-0.29193961787114514062