VARIABLES = "X", "Y", "P", "U", "V", "divergence", "vorticity"
ZONE NODES=7663, ELEMENTS=14908, DATAPACKING=BLOCK,
VARLOCATION=([6]=CELLCENTERED), ZONETYPE=FETRIANGLE
-0.91007947463565819213
-0.95503973731782909606
-0.88685627241486197914
-1.00000000000000000000
-0.93181653509703288307
-0.86363307019406576615
-0.95503973731782909606
-1.00000000000000000000
-1.00000000000000000000
-0.85553411805968693216
-0.83231091583889071917
-0.80098876148371567218
-0.88865783285610400188
-0.94432891642805194543
-0.89936865374588115252
-0.84482329716990989255
-0.79799904393405407532
-0.73236501767404249552
-0.76667688957887913936
-1.00000000000000000000
-0.94432891642805194543
-1.00000000000000000000
-0.74722844480084749108
-0.81794313882847569097
-0.77410860314228158163
-0.73617282557343133309
-0.70186095366859468925
-0.67135688966314699400
-0.70929266723199724254
-0.87919381636283144843
-0.93959690818141572421
-0.88392582460946766965
-0.81321113058183946976
-0.63958628420397456438
-0.67009034820942225963
-0.60781567874480213476
-0.93959690818141572421
-1.00000000000000000000
-1.00000000000000000000
-0.63713617127439248211
-0.60291545288563797023
-0.67507194884324273065
-0.76181465128283831767
-0.82050423382283488305
-0.75452154804184290438
-0.61014662708997557949
-0.57837602163080314988
-0.54893636451680416499
-0.57592590870122106761
-0.69328364478923276693
-0.62112714883162800650
-0.63933884477761804277
-0.70057674803022818022
-0.88197424129809964821
-0.94098712064904987962
-0.88058402883046560383
-0.82189444629046892743
-0.52083659381668323540
-0.55027625093068222029
-0.49273682311656225030
-0.49217380461897947130
-0.54754462875230869301
-0.52055508456789179039
-1.00000000000000000000
-1.00000000000000000000
-0.94098712064904987962
-0.53057378739312333060
-0.58495631608537068669
-0.56674462013938065041
-0.64871491603929276604
-0.65809098730096748930
-0.70995281929190290349
-0.51137379600605137320
-0.82589059508918905017
-0.76581080008155844041
-0.76980694888027845213
-0.46739362218674573857
-0.44205042125692922683
-0.49549339288686666816
-0.46711211293795434907
-0.71394896809062302623
-0.94180606372518471670
-0.88279318437423448529
-0.88361212745036943339
-0.54148233296568226702
-0.59041058887165021041
-0.53602806017940274330
-0.59978666013332482265
-0.82670953816532399827
-0.48593025461576289104
-0.46673026322869093363
-0.44128672183840245147
-0.44064382247488603772
-0.38855082183320982514
-0.41530062154506952599
-0.44518850560047107390
-0.42012681391944595166
-0.39820320658196267649
-0.94180606372518471670
-1.00000000000000000000
-1.00000000000000000000
-0.41974496421018259174
-0.71831015011471444076
-0.66245216932505890384
-0.66681335134915042939
-0.50614371028929183716
-0.50068943750301242446
-0.47080508761290151831
-0.45604590472565198489
-0.76887851481087610139
-0.82624532113062276739
-0.76934273184557722125
-0.55703469310397024650
-0.57258705324225811495
-0.61533902027161280213
-0.39421035042652835534
-0.36746055071466865449
-0.34637027959612748385
-0.71784593308001332090
-0.61970020229570432768
-0.37228674308904508017
-0.94110329771799983156
-0.88290936144318443723
-0.88220659543599955210
-0.40108161757968074923
-0.37953985995146083399
-0.36087651332095899148
-0.82554255512343788226
-0.44041447557018131853
-0.49094840426793179278
-0.45560978159154141842
-0.42051149298203516214
-0.39973626412566787280
-0.43527067586928469556
-0.51005547259777028746
-0.47862861222985830789
-0.52560783273605826693
-0.38030638872331345990
-0.32025336570234130829
-0.34134363682088253444
-0.29413645180855518824
-0.45952154390001981321
-0.33106196523259168174
-0.31575365086905587964
-0.35697842872550927806
-0.64709473986934717971
-0.70798662734011164055
-0.65695404560924886006
-0.33831508209500743556
-0.42007536984792459567
-0.58445748651299367360
-0.62563541893107199598
-0.57852226987762589427
-1.00000000000000000000
-1.00000000000000000000
-0.94110329771799983156
-0.82298381894400174374
-0.76631977863143996288
-0.76376104245200393539
-0.61577611319117042665
-0.50368695414901343277
-0.53813700369563577386
-0.49115778318943587033
-0.70542789116067550204
-0.27334063822566767588
-0.25254482464278010800
-0.29945755211945379592
-0.28414923775591799382
-0.34278727972213063335
-0.32469804612330233073
-0.36221715512448510177
-0.54407222033100355318
-0.37961033006893740716
-0.35948439601220694151
-0.39994943579119413002
-0.43486693132382137073
-0.41575986299398293156
-0.39110525041778448907
-0.32469830940963728683
-0.30213687818368573090
-0.28852010549831552666
-0.93866202115450292354
-0.87976531887250275510
-0.87732404230900584707
-0.82054254238050483572
-0.34209122106775463612
-0.30660907581080892870
-0.37529482321499574304
-0.55726016495495334091
-0.53006284339691311924
-0.58857879163313020499
-0.41556101514811533137
-0.45962398464856435432
-0.44709481368898684739
-0.25077577889247049114
-0.20741510597638584956
-0.22997996530958297878
-0.51687489877296322049
-0.65419079462462681462
-0.70897591853831531949
-0.65064276724698699716
-0.40333313278294991022
-0.25375822991662966288
-0.25497163519047927327
-0.28536264302976754870
-0.27174587034439739996
-0.60138504916286295021
-0.54286910092664597549
-0.55567535845637883174
-0.93866202115450292354
-1.00000000000000000000
-1.00000000000000000000
-0.60493307654050276767
-0.75308277063718831457
-0.81520340647309708082
-0.75842190654459606947
-0.28418409888221041193
-0.32183424744720867672
-0.30444107250275637133
-0.46877680339111904573
-0.43386665263322460317
-0.48196474801506883345
-0.70363678263090756460
-0.33616209891255005582
-0.31283980181289317013
-0.35197252611533880184
-0.42471383389066996727
-0.25324117595507827927
-0.28896961103919027725
-0.27088064072669693072
-0.20908208178070777916
-0.18651722244751064994
-0.16561933891863545032
-0.36203972863054145748
-0.33297420684329842588
-0.37426761099570687863
-0.22509359186438093747
-0.19764235908598176694
-0.22630699713823052011
-0.29851195034755179103
-0.26871263741864437335
-0.25595742064727489140
-0.23918318549335676471
-0.22339473579623425614
-0.18163084900230860863
-0.32290700432809582576
-0.93231475649247885773
-0.87097677764698178127
-0.86462951298495771546
-0.80885614181107301501
-0.45102502852840070657
-0.50335019349238974140
-0.49054393596265688515
-0.23831795587565626771
-0.44244584058081265487
-0.56831896587808194976
-0.61125488025135443770
-0.56199716216723039075
-0.38051322796059494635
-0.34546544077307461684
-0.38966604670314963776
-0.63470317383499941233
-0.69389297223609380794
-0.64444698422981305796
-0.33921982380818649361
-0.21051854744110801154
-0.14658800080322559323
-0.16748588433210079285
-0.12755666268781573613
-0.24291195675460369729
-0.27787587928374846147
-0.26354802781840702686
-0.60151106985654068104
-0.24605376043875970549
-0.23058229897519361140
-0.20792342199530897129
-1.00000000000000000000
-1.00000000000000000000
-0.93231475649247885773
-0.46326751472901006590
-0.47551000092961948074
-0.51559267969299915624
-0.52191448340385071525
-0.73772349455507935101
-0.72236421847297038745
-0.79349686572896405146
-0.26008721986568300588
-0.29653071335449071588
-0.28646351083928811576
-0.67853369615398495540
-0.22541768937495632041
-0.14887615322372710347
-0.13213296752881878438
-0.16488766330740028954
-0.40201179622135563285
-0.39343260827376758115
-0.35299856391431050362
-0.18683965369057820016
-0.22004041482282823972
-0.20511719474340622815
-0.34923200234369256023
-0.25149958831014335159
-0.19257838998582071932
-0.17970220163069450248
-0.16176204417540721026
-0.30106296252974240613
-0.26915171821618644188
-0.30730857949463052936
-0.19738153784294359960
-0.10655458896983674433
-0.08555251525185773864
-0.12558592708524660142
-0.54446642230292052744
-0.52061387872775899410
-0.57765852628137914770
-0.26461946904093469612
-0.10884274139033825457
-0.14694750585211299732
-0.91679226968569760281
-0.84910702617817634952
-0.83358453937139509460
-0.17430084893299269133
-0.77797437892218268551
-0.49806193982868923742
-0.41681610115956935214
-0.40457361495895999282
-0.35812220138951927906
-0.35556038265191491909
-0.21617015601308955941
-0.19867588863344221028
-0.18942835527157542153
-0.65392100117364326817
-0.61009047885465772509
-0.58547778387431614888
-0.31345210957969543708
-0.30968554800907749369
-0.27390565524508037054
-0.22116444019784006758
-0.19941692364107643787
-0.22975207175337972187
-0.27152868673063340621
-0.55304583130103757149
-0.14393687157882442684
-0.17593014678706669907
-0.16538826263470129962
-0.09045560242433346720
-0.05335454216085120521
-0.06945352870635447540
-0.19442263945632592970
-0.91679226968569760281
-1.00000000000000000000
-1.00000000000000000000
-0.20688909418259873729
-0.23802040619939257571
-0.23348815702414088546
-0.46421278276525890227
-0.44166084386618914559
-0.40781168680275881044
-0.13286389417090113674
-0.11804935584760692380
-0.10396574416639507710
-0.38296694409613907251
-0.16907356843578869032
-0.17832110179765545133
-0.14871878160000193136
-0.08326310513453372142
-0.08097369501720971807
-0.10655333127301425122
-0.74678180774446834000
-0.69117164729525593092
-0.65997907611754147439
-0.20315300891183757370
-0.14632782658941317910
-0.12687726529424217525
-0.15685845949241017383
-0.14431965473482469275
-0.62272842999592881164
-0.31523363930607695149
-0.27746871469784334385
-0.31779545804368131146
-0.27568718497146182944
-0.13540706843653330105
-0.09246971959180239065
-0.24371037178613169649
-0.24133340327168473216
-0.21351508832718299469
-0.49020792296003201649
-0.45980196719230498337
-0.52263987553331059388
-0.11542150473031861924
-0.21020209125489086599
-0.04951525163415438496
-0.03341626508865112172
-0.01347798801645103649
-0.15088496075064655733
-0.17515094219586149760
-0.17015665801111098943
-0.43380682699753192466
-0.93183136939405697419
-0.84862363907975457700
-0.86366273878811394837
-0.36195912651251982428
-0.33711438380590008634
-0.31610656622228089363
-0.14980187117532423047
-0.05974225183073085532
-0.03393198840960397894
-0.05745284171340685198
-0.77683280652246267106
-0.69003007489553591647
-0.72008107367353024753
-0.15795546916880301436
-0.18242228167570087582
-0.17868619640493971223
-0.02370498821302750858
-0.58969830558109792573
-0.55244765945948526298
-0.51941753504465437707
-0.28184572493575044128
-0.31998396316263488792
-0.27965721981679692032
-0.79187190623082215346
-0.12450791809667453858
-0.12211696308608578632
-0.10029705459334714579
-0.48960975111847970798
-0.22261921861564198943
-0.25004396665674266664
-0.24826243693036117999
-0.21806715347141247818
-0.15442021495972479972
-0.29897614557901563970
-0.08953951911620026960
-0.11673819534751234128
-0.10820839220522121549
-0.06539974501013787189
-0.04982579500306601877
-0.07689576958473054447
0.00111764071276608274
-0.01882063635943400162
0.01571326944198320197
-0.16842759745496643786
-0.19097134289107470240
-0.18765834581878260146
-0.08745431341079661081
-0.07094288265519814451
-0.09891007397472015295
-0.38246907566606247464
-0.35712646452936619434
-0.40846421586083558886
-0.09491828685477371463
-1.00000000000000000000
-1.00000000000000000000
-0.93183136939405697419
-0.16319153331188473999
-0.33661651537582354399
-0.04187889170633499886
-0.12847440574180565842
-0.10823002988360938548
-0.12955749531712795752
-0.57930858494692738514
-0.64969482931022881633
-0.61964383053223448528
-0.06038433882913207817
-0.10426354223847826563
-0.54936305999579082560
-0.08024120088569920706
0.02235563625533425886
-0.00578817607713486004
0.00443882411944161118
-0.25919437486841218066
-0.25700586974945865970
-0.23654302480107394779
-0.43192411708632177936
-0.40404626698033857535
-0.46173190101249650397
-0.22958112170835798249
-0.73613331768391510046
-0.75218556169429984237
-0.80792415024120689537
-0.11847877186544947259
-0.13821712051712625735
-0.13468186630804801496
-0.20348381621010019904
-0.19893175106587068779
-0.18434841380455838089
-0.17638800562976242325
-0.38058636575485238485
-0.29180958996657258009
-0.27467916932330738167
-0.26751261371086426655
0.03235738686852006329
0.04900150429505692462
0.01776175813930294320
-0.11335440087452942903
-0.01587493908620395480
0.00218211023719606760
-0.02382184238293497472
0.03567857027519559521
-0.93707023097736752426
-0.86890160037142449845
-0.87414046195473515954
-0.29697991348583047122
-0.32705318900759833278
-0.30654323985405568243
-0.07205787096454951968
-0.05457622281289875588
-0.07743663870312295083
-0.13388290323837620521
-0.15115525034667132154
-0.14591918620358962366
0.01226887324626516410
-0.81316301182451744545
-0.25202781925596912105
-0.63042091431460178796
-0.67525099399406607326
-0.60486474963076464206
-0.28224626359834736888
-0.51748865003215760439
-0.48754312508102115586
-0.45566871511738787914
-0.69130323800445081517
-0.05518149529870722270
-0.03942010794221629394
-0.06447981352920828524
-0.12618083755191283890
-0.08398431704386941088
-0.06767157949439168985
-0.08795080468900054460
-0.42985749104886322725
-0.03134511349170723132
-0.01286443198034844040
-0.04190365731777329072
-0.22091560718327479806
-0.21395370409055880501
-0.20528818956547564833
-0.19481830168501701461
-0.06112390115364522286
-0.04699816537755752144
-0.36722945357991454429
-0.34376955235442835379
-0.33041264017949051324
-0.00534116087157618640
-0.15609518907715025371
-0.17022180144085430342
-0.16226139326605834579
0.04829231663981482098
0.08087136383764643999
0.06493643406635168924
-0.09597408639091196958
-0.08371814289821455368
-0.10109845738183201314
-0.31369627683266049223
-0.14498904615776322946
-0.02614226996128236891
-0.93707023097736752426
-1.00000000000000000000
-1.00000000000000000000
0.04951516842992258194
0.06283810244978391135
0.07667470060451091196
-0.25734967037618305952
-0.24186487592128791402
-0.24718672704150185249
0.03680193637222746450
0.05124823648912066321
0.02671517336315836627
-0.07569486119630311483
-0.75513978599926478985
-0.81464012397700003021
-0.75366267384678231611
-0.56956067201756876983
-0.54400450733373151291
-0.50870042972053564068
-0.48218457241896173215
-0.11111989841814225166
-0.10376102497083503073
-0.11882196410460561797
-0.38577912715390316745
-0.36751198732746770403
-0.41159035122242781934
-0.27266482281452886216
-0.28482236815017969445
-0.27008871826269653660
-0.66713387663131495930
-0.70965971916280734533
-0.64877739547295831812
0.06396146854681578064
-0.34896231375347908088
-0.22606740888409648793
-0.23130521684258520398
-0.21567779922478608201
-0.09373958393452479221
-0.19449169310977748593
-0.18402180522931887996
-0.18369519665407935127
-0.16989519286561480249
-0.23662706796279917021
0.01136124193304909567
0.01888451304182135054
0.03558691584644663175
-0.25992577492801538508
-0.71113683131528993009
-0.03377175656216222649
-0.02619369912682099552
-0.01296729031142569884
-0.02951779645866291560
-0.04859468797652730099
-0.04204700963578083400
0.09530739329204045152
0.10974342274643446304
0.07937246352074570077
-0.31428845834862939590
-0.29757209500179937489
-0.29816427651776827856
0.09320906167547268750
0.04341757616778364748
-0.87192280161001334271
-0.93596140080500667136
-0.87303163178237430664
-0.13208188191166458925
-0.13028086058495297328
-0.14318802483105161349
-0.01715911413693128884
-0.00388127615599736294
0.00510187966835371452
-0.81353129380463906628
-0.28541454966614854261
-0.06753714287572057384
-0.05951386117380914192
-0.05135614285322659400
-0.11702094277789400201
-0.02124254338504430809
-0.59747126878159650953
-0.53661102648456338038
-0.56452162324859123110
-0.40623922972957926536
-0.45746982972505745302
-0.43095397242348354450
-0.38687560852852348470
-0.61582774993995315072
-0.00393270532153599216
-0.34538262625813415108
-0.32683295268414558343
-0.32325326518880059812
-0.04043696965594475307
0.07382407605619827062
0.08653730811389340194
0.09639991562327587804
-0.21268537030873449489
-0.21937638959641547753
-0.20898677993710507161
-0.07476348929628558182
-0.08926225713356031322
-0.07924081609725006081
-0.19819028348140693696
0.01053339324411560300
0.03475906715751313908
0.03393121846857964641
-0.31070877085328441058
-0.15973728909639883788
-0.16337938911564739430
-0.17353729288486335891
-0.25462005803749099275
-0.26205338903348007751
-0.26735910592400446983
0.01951654906846668133
-0.23213852198794743265
-0.23820963509179834960
-0.24269818106665008717
-0.14683012485030016991
0.12713070846579913042
0.11269467901140511890
0.14451799418516381168
-0.06305981607475608097
-0.63546618415865563367
-0.69530298507896026727
-0.65130003039498529649
0.07182734589883174592
0.05370713087263918883
0.06153779119397620456
0.13021082504974942906
0.10344276282713016357
0.11997712389809195299
-1.00000000000000000000
-1.00000000000000000000
-0.93596140080500667136
-0.74232898252314283294
-0.72951817904702087603
-0.80072049032851710937
0.11330537033651265355
0.08411363076105381198
-0.10363830202760657140
-0.10351557908437812594
-0.11689821983466555655
-0.25013151206263922743
-0.29166823039039613263
-0.27891850353877639668
-0.28517218426302393119
-0.59999390370362348790
-0.50814774155565300973
-0.48023714479162515900
-0.45177385986271467733
-0.22544750270026642225
-0.42900654479614697134
-0.01157154204419705637
-0.00329628897057844842
0.00637471237026880199
-0.08913953419033185388
-0.37589794758886874160
-0.35653432638781290542
-0.34555666544815816232
-0.33440496531847940798
-0.68249218160283819934
0.01491842341834169819
0.02473496716832968359
0.00588383842845199238
-0.27361278664825200435
-0.02396887366858174023
-0.01841995087850056487
-0.03488804686586358117
-0.20639925981351345263
-0.19190417298618589470
-0.20011314931829241037
-0.18174626921696990234
-0.30565182644286409408
-0.31445254581583237385
-0.30190805148031618632
0.05276232563517819357
0.06993773542390975539
0.05193447694624470090
0.07088254066137075760
0.16109293232049862188
0.17766787045583343208
0.14370564660113394062
-0.13651943006960459703
-0.14994940959262598179
-0.13340014532727878516
0.03668858305013099341
0.03944594763168234042
0.02227391365001802834
0.01555483976929924322
0.15393934775279144445
-0.04957733611088720876
-0.06217041270358639182
-0.05046673948205690485
-0.00602261925411588100
-0.29541200535294398488
-0.93641099514644965396
-0.87237239595145643634
-0.87282199029289941894
-0.12001750457699136843
-0.80117008466996009197
-0.51414032989028679577
-0.57480325702447121472
-0.53933097656943895792
-0.22976641706327605164
-0.23398802607753721450
-0.22122589368600525939
0.03209045740000601027
0.10067225458345632760
0.10494459354363676329
0.08838596972123424766
-0.48295709487650073655
-0.03399864349469388508
0.11871052137174678553
0.13561597608498354717
0.14102112712021769303
-0.24661692929473283398
-0.25502422349766734611
-0.25853880626557368405
-0.40640765787983046398
-0.38364034281326275799
-0.36104145589694625063
-0.35329906067255223423
-0.08671908679639235562
-0.07234304190234608356
-0.06992259450840658530
-0.21493978319078421713
-0.31897608214143202687
-0.33226637379479506684
-0.32111467366511631250
-0.27769435157879002185
-0.28143326792090694877
-0.26987387030613507743
-0.31231395429214803272
-0.65707110263110735104
-0.61004510518692478538
-0.58462402621519393708
0.12298286033192723510
0.08744116448377325934
-0.19166306681938807821
-0.19588810806884024429
-0.17752122796751773626
-0.05974996530964689356
0.05134086870203288799
0.06934412717969794249
0.06875051893548612958
-0.24239532028047169887
0.05409823328358423500
-0.14846998800022576104
-0.16042054593084692504
-0.16189996752324714580
0.17590355297401058521
0.20728911176285735873
0.19247849110934539540
-0.26635928753822868398
-0.54938217805274036643
0.17935307347129858524
0.18103827648676373840
0.15562455076825659761
0.03285188622487616311
0.04096880528142263916
0.02367175882584571928
-0.30196994390330189617
-0.29173012281338184248
-0.29828806136373975377
0.01288993330644085285
0.01940515424261290284
0.00049260168205616899
-0.17604180637511751550
-0.11596080375427106346
-0.12840602842416398710
-0.13246272924688429207
0.16102970180349071572
-0.93641099514644965396
-1.00000000000000000000
-1.00000000000000000000
-0.75244966746862373963
-0.81263582888076157928
-0.74098392325782236334
-0.42956415551619331339
-0.40735445116967200496
-0.46074739052997937261
0.05162490036493476431
0.06380385309818718820
0.04426941013325843416
-0.28799120647126486006
-0.02804326366566426559
-0.03766657645282796979
-0.04362195628185758928
-0.38419795353330910004
-0.09512605073813659717
-0.09932081491125735462
-0.08252432262327158430
-0.67919217608661486274
-0.60674509967070144878
-0.62886617312620896048
-0.21135696361399308740
-0.22260077790969376443
-0.22618359748648492191
0.03018697976201777100
-0.32559867527016039812
-0.34332006558355332437
-0.33557767035915930798
-0.32228737870579621250
0.10447071124560272648
0.10399682894756868967
0.08696728218573922253
-0.14441328717750545607
-0.11176603958115029214
0.05238632918980491715
-0.05379458548061727408
-0.20713192236454092132
-0.69065792029741635005
-0.30823706331639810774
-0.31360657272891506731
-0.30694444487963112866
0.06627718601683665889
0.08637367394152740963
-0.23930517784692323380
-0.24884393863057038820
-0.25193408106411885328
0.14150711559610046342
0.14199310407198320605
0.12346884880780997773
-0.30326256234006893076
0.22465356809552727846
0.24201802442819717043
0.20984294744201531513
-0.01107552178551236659
0.00783703077504436726
-0.00373109269252416831
-0.46873536807422599981
-0.52667969714470996845
-0.49143784898225639779
0.20205763417824226802
0.22644739790065110396
0.20374283719370742118
-0.02069883457267606905
-0.27102620163911778084
-0.27436027660895390134
-0.26302521256839256347
0.18786761437831472898
0.16444437074926621101
0.18445294543253923369
-0.43804490962194897463
-0.93990749431182352147
-0.87631848945827317543
-0.87981498862364704294
-0.81613232804613544680
-0.23572235827013207632
-0.17440081690765757427
-0.18838108788446825126
-0.19002207735192816473
0.12299496650977595480
0.23423271116442412332
-0.29372169259971997457
-0.28342483770724513636
-0.28915532383570019537
-0.34420230173194787948
-0.37577837645080991447
-0.35262187881444706505
-0.25993507013484407064
0.16493035922514898139
-0.04981397863876661780
-0.06196138082470526581
-0.06594198766655592903
-0.07854371578142092802
-0.14271221478397727589
-0.15701840114379059243
-0.15871947353731874486
0.04720475764676596020
0.05344071001210928817
0.03642293212736109898
-0.31907044319840560664
-0.34005594954767592863
-0.32233455923428300238
0.08451820717421362761
0.10028589541294112564
0.08204487425556415692
-0.31690453191195511184
-0.31483298168247819682
-0.32021582847631929747
-0.55855389022947821154
-0.53248375424376259701
-0.58067496368498572323
-0.28009076273740896035
-0.20476787567338253226
-0.21787268452737698632
-0.22023673121853537538
0.10214136218025490765
-0.31124216317177716418
-0.31510912265660462328
-0.30973961324408760820
0.06693369882194222242
0.07006354454569727053
0.05551617491355995138
-0.33163637246517674306
-0.50060956115899424290
-0.12384969405607172688
-0.12612786124011785005
-0.10948787239710416896
-0.17269974451412942185
0.25432952707774786338
0.23696507074507794366
0.26664102972729852858
-0.20312688620592261879
-0.69328270182714868408
-0.63149095465594129450
-0.63411573618567362853
-0.30237325327063807601
-0.30645844517753639824
-0.30734775424696725299
-0.31303757242712770825
0.20321393881883415000
0.22591849952577786054
0.22538960115090458936
0.02520116379588365971
0.03099717334915441658
0.01363304032831512413
0.20662860776460967305
0.06175212727890327935
-0.14043404759993116659
-0.41518552971534872231
-0.38449507126307169713
-0.36163569135647144481
-0.24636282045515861538
-0.23324124009472030350
-0.24388170227974681481
-0.02769101605799134322
-0.03267879625540965477
-0.01571105437525775750
-0.30052301989931234916
-0.29940554063152602371
-0.29483917186750630002
0.04221894168063185238
-1.00000000000000000000
-1.00000000000000000000
-0.93990749431182352147
-0.35291899654420966215
-0.82290275661320144707
-0.75922009603568985092
-0.76599052460275585119
0.13909592862938893743
0.13619875318679466880
0.12009779106718168618
-0.04482619844134830278
-0.07574420652416651023
-0.08952703222362776159
-0.09232654148088217938
-0.30349073253842440145
-0.25723429596132862951
-0.26562465329208689857
-0.26832542746560233970
-0.23087719340356188669
0.27360919440449521511
0.25002829615257315954
0.25781360941634617889
-0.30885030417465675345
0.08072552292135951046
0.09896654407873647918
0.09764719274453184661
0.18108156917511392114
0.17429552397191308555
0.15814431402194814580
-0.70005313039421479537
0.11824232429986789028
-0.10668836313984975117
0.08385536864511455857
-0.30872480959187442728
-0.31389762639514001696
-0.31716174243101741270
-0.31177889563717631205
-0.58265170165902957500
-0.53446049221780633776
-0.53643723019185007850
-0.27697995855156432032
-0.28293371546401080430
-0.28604451964985549983
-0.58527648318876179800
-0.18771401444223412280
-0.17203267107189529339
-0.18704694099999999435
-0.25475317778591688445
-0.44603439564757108027
-0.48925907494566683864
-0.45738488186089854004
0.28175516140318379588
0.29686929307906911868
0.26944365875363313068
-0.31309662479199495966
-0.30712280638558431267
-0.32566255405876609608
0.15524713857935387717
-0.20194294644223412249
-0.21550480499999999373
-0.21668874476368849002
-0.40383504350202126254
0.00711639834469807685
0.00169265282608695427
0.01905678584692624758
0.24123339717045899633
0.24176229554533226751
0.25707719319001343106
-0.01028730885664663405
0.23900057216710449137
0.21343409327270962406
0.23219508665900454036
-0.27427918437804887919
0.28523924374178216690
-0.33437924887102787874
-0.13968373202803585631
-0.15551776999999999962
-0.15626808557189530990
0.08079801018404392243
0.09153247582239057434
0.07248659291724993126
-0.30707735009344722110
-0.31095516588796268120
-0.30915975663261219264
0.26534319379725435084
-0.94246179296010978987
-0.88236928727193331135
-0.88492358592021957975
-0.82545705526148771547
-0.29204084670677155078
-0.29492636957784296170
-0.29772469473857765543
0.04855862739497542047
0.05978039572645285626
0.06612008144079642435
-0.05459571961672655266
-0.05827855022071590924
-0.04114336783735894620
-0.20127587299999999404
-0.30884724876993852050
-0.30645538977281810977
-0.30645233436809982130
-0.49123581291971057938
-0.07206137592017715365
0.21516832906335661701
0.19473192651763485128
0.20151797172083568688
-0.17128235549999998311
-0.28893004252092691075
-0.24042408700000000854
-0.24215289463987341168
-0.22914838576368851131
-0.30790107984266079644
0.09458983428346121047
0.13362864855564465794
0.13105854392449464707
0.11567221966871787941
0.11435286833451324684
0.22708445061523055419
-0.29563693570757137996
-0.30735368945298846555
-0.30218087264972293138
-0.30545624317310904328
-0.30248853053399704649
-0.30445404116868168831
-0.12264234852803586329
-0.10548101761181388758
-0.12143500299999999970
-0.66401532680678088116
-0.71500292570476831067
-0.64906553149622725485
0.07882627863159349935
-0.30137987104657781856
-0.22796444599999998726
-0.25263865663987339349
-0.26139561100000002769
-0.26351013214604346313
-0.30676484223077349345
-0.57996729867390828250
-0.53112804567699645197
-0.52581886116214293647
0.29493019107273366064
0.32321935241816884821
0.31004432274861898344
-0.13847638649999999272
-0.40246008728701243573
-0.36026073514146261800
-0.35888577892645379119
0.16980212991551266177
0.16530873585911223800
0.15075374452295345340
-0.30251409242159871260
-0.29790537845761311253
-0.32977053490704227867
-0.30545318776839075481
0.03650890247557744828
0.04202063160200047998
0.02456851497334927928
0.24649373181319506054
0.26233752783274943976
0.26759786247548550397
0.25329921732129501155
-0.28050437123200538947
-0.27184984014604340885
-0.27807502699999997464
-0.00575979580565966470
-0.01863598995601740624
-0.02316350300700437473
-0.25090984900000001812
0.05407035652139845217
0.29938593676124014564
0.31101598609852709743
0.32516267911798502066
-0.03661585478637197771
-0.44576183999128382585
-0.44548928433499662694
-0.49096325726342338047
-0.94246179296010978987
-1.00000000000000000000
-1.00000000000000000000
-0.29804061970091122458
-0.30115486982397954296
-0.30083894486164597382
0.14818363989180344253
0.27531598186108230397
0.28358198246832322376
0.29355477053215123240
-0.77555626038694969182
-0.83023992315358463578
-0.77077339249485277151
-0.32839557869203345186
-0.55427331748145014512
-0.60914432214411551314
-0.59419452683356188682
-0.30280445549633061564
0.11195445669273611233
0.12626172064094037806
0.10889709823166547620
-0.54004608932179654079
-0.26973531900000002892
-0.06997699780836327821
-0.08535827599999999682
-0.08744265411181387226
-0.29529559502473068378
-0.30201020230830255553
-0.30118647255908892468
-0.71978579359686523098
0.12866013228271749869
-0.10339663949999999826
-0.28656108723200540700
-0.29018845900000000970
-0.29255741428892145795
-0.48565407274856975395
0.20584800695583338470
0.19652768484831015239
0.18541160441011161897
-0.29546626536615105962
-0.40218753163072518131
0.30935872482506809877
0.08401152097415939823
0.09671771816495647323
0.10190296050752237211
0.18091821035371119519
-0.29251290219197007003
-0.28676996685296363143
-0.27790299799835582739
0.23734904176653276453
0.24926516331840670171
0.25952975446970893980
-0.28413174299999999217
-0.30249381309811607110
-0.29853529182813226539
-0.30280632096078974325
0.28057631650381836819
0.33707148415791388096
0.35092361589765891372
0.32389645448836401620
-0.28790418822798446996
0.33804314750782193943
0.01748730919652224242
0.01230185377061016050
0.02975397039926136120
-0.30103374457214809867
-0.30374303947012393223
-0.30274389287041492125
-0.00057434037974758191
0.28429714239961073607
0.26164885728335762760
0.27594750243754812002
0.05961134011304527330
0.07166106503244323855
0.07720204862409006663
0.16248327283530211718
0.15965780981149199635
0.14535817686799332171
-0.29691544342643150234
-0.05123784405836327716
-0.03325797922800870221
-0.04787996850000000165
-0.94338931224947120135
-0.88585110520958099123
-0.88677862449894240271
-0.29934593691198974064
-0.29623168678892147776
-0.29753700399999999382