VARIABLES = "X", "Y", "P", "U", "V", "divergence", "vorticity"
ZONE NODES=7663, ELEMENTS=14908, DATAPACKING=BLOCK,
VARLOCATION=([6]=CELLCENTERED), ZONETYPE=FETRIANGLE
-0.90556970079998755363
-0.95278485039999383233
-0.88116988934107720599
-1.00000000000000000000
-0.92838503894108348469
-0.85677007788216685835
-0.95278485039999383233
-1.00000000000000000000
-1.00000000000000000000
-0.84829655409366000463
-0.82389674263474965699
-0.79102340738733256664
-0.88315930589698932174
-0.94157965294849466087
-0.89436450334848838217
-0.83709135664216094419
-0.78782561591796362865
-0.71888115395376039896
-0.75495228067054642729
-1.00000000000000000000
-0.94157965294849466087
-1.00000000000000000000
-0.73477698427429405381
-0.80896814508564163226
-0.76290019583081325472
-0.72290917889575811994
-0.68683805217897209161
-0.65479495040418367324
-0.69478596733923891904
-0.87344300987217804444
-0.93672150493608907773
-0.87830115788458362758
-0.80410999707323604913
-0.62134789787239042003
-0.65339099964717872737
-0.58790084534059716681
-0.93672150493608907773
-1.00000000000000000000
-1.00000000000000000000
-0.61885956797362573489
-0.58292418554306779654
-0.65885058490868098069
-0.75058664196567681515
-0.81201482591892748530
-0.74268181311998548999
-0.59036506180592618342
-0.55691800927413293021
-0.52593517320766869361
-0.55442967937536824508
-0.67822298106078449109
-0.60229658169517130695
-0.62166897784727481735
-0.68612780990647581625
-0.87666280746914515554
-0.93833140373457257777
-0.87505290867066154448
-0.81362472471741098534
-0.49632366957736478996
-0.52730650564382908208
-0.46671216594706088632
-0.46615858957930050854
-0.52454138756118418030
-0.49604688139348462883
-1.00000000000000000000
-1.00000000000000000000
-0.93833140373457257777
-0.50689360455608434286
-0.56428129120167958011
-0.54490889504957606970
-0.63185941116217825275
-0.64204984447708157713
-0.69631824322137925165
-0.48652609706769245346
-0.81811155450145711665
-0.75507347174972294646
-0.75956030153376907776
-0.43998750545224007968
-0.41326284495741921754
-0.46959900908254392782
-0.43971071726835986304
-0.70080507300542538296
-0.93936564623730123280
-0.87769704997187381057
-0.87873129247460246560
-0.51900571906259584942
-0.57033734845493533339
-0.51294966180934009614
-0.58052778176983865777
-0.81914579700418577168
-0.45971690373995033330
-0.43934939625155844389
-0.41254020292381632373
-0.41176838019943151625
-0.35682459445180209068
-0.38504371970461065411
-0.41654354114652203389
-0.39009566883558144390
-0.36692849271374361475
-0.93936564623730123280
-1.00000000000000000000
-1.00000000000000000000
-0.38973434781877996924
-0.70574752952188690713
-0.64699230099354321233
-0.65193475751000484752
-0.48151756625147101865
-0.47546150899821526536
-0.44402941344034618787
-0.42828480818208125580
-0.75923522897250383945
-0.81898326072355320804
-0.75939776525313651412
-0.53577325046868873315
-0.55254078187478161688
-0.59729531317593154149
-0.36273899820491389834
-0.33451987295210533491
-0.31221515145240857914
-0.70558499324125434349
-0.60223776969239328771
-0.33957182208307612470
-0.93882142440124893845
-0.87818707063855017125
-0.87764284880249776588
-0.36999511542009250187
-0.34718926031505614738
-0.32745002791636868000
-0.81843903888750080267
-0.41233555811660410617
-0.46567063858960000555
-0.42818248577847517478
-0.39068277986131028090
-0.36882535679880423807
-0.40642738511957521297
-0.48615052034469219411
-0.45329532162678848328
-0.50291805175078507784
-0.34813769235758645904
-0.28461677554330899742
-0.30692149704300575319
-0.25701839963420936019
-0.43281543987169629473
-0.29595054843625701047
-0.27968594542010538628
-0.32330721906692450052
-0.63204544751304359007
-0.69564033824277371476
-0.64199010251152421880
-0.30356798666823703314
-0.39058045745770419988
-0.56564115295920025517
-0.60878795523460249584
-0.55909096741699093602
-1.00000000000000000000
-1.00000000000000000000
-0.93882142440124893845
-0.81610373713466710655
-0.75689992721967014333
-0.75456462546683633619
-0.59884330023612197813
-0.48036776463214392319
-0.51645427325346271452
-0.46683154312946617548
-0.69330503648994001864
-0.23493697110526956529
-0.21285554257632974262
-0.26253534701436914700
-0.24627074399821757833
-0.30838716755555350968
-0.28932430719473833935
-0.32907483199677128871
-0.52300445879567214469
-0.34775536513770011204
-0.32668537347659593051
-0.36951046579660001834
-0.40705928803724283904
-0.38657940628215065049
-0.36082325444769719480
-0.28910685569938038286
-0.26522481445124873600
-0.25076368348239208572
-0.93646369448341659769
-0.87528511888466542512
-0.87292738896683308436
-0.81374600721683476579
-0.30800484033566710718
-0.27004399533856521254
-0.34375431396214656266
-0.53723778121719356626
-0.50883440947518698838
-0.57043992849411528923
-0.38742585488191483289
-0.43389680975702937804
-0.42036058825435163033
-0.21105106345248778044
-0.16508372727076620068
-0.18896963492354795777
-0.49460108705366545578
-0.64040405821905599382
-0.69748434184294616500
-0.63622475286604984746
-0.37412455466480598609
-0.21403826649275253802
-0.21522099040917530566
-0.24745346791464034597
-0.23299233694578369569
-0.58432916267692691648
-0.52272364365799861563
-0.53661287784081024288
-0.93646369448341659769
-1.00000000000000000000
-1.00000000000000000000
-0.58850846802993306284
-0.74410659141891932755
-0.80851699019287615045
-0.74933560844287783187
-0.24707232829666361806
-0.28687885088662978816
-0.26819831774570096483
-0.44406252855120353917
-0.40775729247026321067
-0.45829585097272507177
-0.69225532481898766068
-0.30255716214106437301
-0.27842895080553281550
-0.31962610262661500515
-0.39759157367608899403
-0.21358474851661862770
-0.25145452785567845577
-0.23217421599950535671
-0.16670003255915122331
-0.14281412490636943846
-0.12054452254197269012
-0.33094493423023257916
-0.30106661401276796353
-0.34424623444734137045
-0.18362671020239773600
-0.15439787782846575714
-0.18480943411882053140
-0.26275063955109823066
-0.23032853840664113676
-0.21621608970804662153
-0.19844474317143823150
-0.18166849593370118510
-0.13747120018521921669
-0.28974778240915038952
-0.93003955759020651151
-0.86650325207362310920
-0.86007911518041313403
-0.80209285329966628630
-0.42721005179307813826
-0.48191146481694419057
-0.46802223063413256332
-0.19762662222515992028
-0.41748367213167070222
-0.55099989612451860665
-0.59570197717178730024
-0.54380638698266436926
-0.35186789155281528174
-0.31630992822371573059
-0.36203361034698944287
-0.62104126445165541703
-0.68257392793528737229
-0.63072266133535570543
-0.30868827111824181930
-0.16803318688108348500
-0.10029499931623138409
-0.12256460168062813243
-0.08004547609049007806
-0.20567421449855516347
-0.24205158265204398949
-0.22637327139760937689
-0.58602058028808701184
-0.20707695898291039738
-0.19033316909288788832
-0.16708158966915717669
-1.00000000000000000000
-1.00000000000000000000
-0.93003955759020651151
-0.44086710127047695762
-0.45452415074787577698
-0.49556851429434300993
-0.50276202343619713631
-0.72849377549811689114
-0.71288095957731445473
-0.78648003737886384990
-0.22624837054821006488
-0.26365749228048901420
-0.25233866067687144019
-0.66696111201448493588
-0.18637790208385618396
-0.10263502218726984483
-0.08472552183256699954
-0.11956169983051637140
-0.37723509661615239885
-0.36750871695474496281
-0.32726014143922671495
-0.14339099708664135302
-0.17848787280162997648
-0.16252974651017126906
-0.32178503483147125053
-0.21596129252338261417
-0.14897593990813629006
-0.13534063085551856220
-0.11628338388257136726
-0.27029180279430864431
-0.23951699157584929734
-0.27791345989978250008
-0.15523629337789926486
-0.05754030043415163387
-0.03503512477781318968
-0.07778982365989293990
-0.52691797831269893138
-0.50283606050087914507
-0.56193866247626722554
-0.23288268106202969498
-0.05988032330519009461
-0.10050445285756917646
-0.91409595731220538717
-0.84413551490241200970
-0.82819191462441088536
-0.12983719048460634626
-0.77053643710086272556
-0.47868010562437746103
-0.39565973572938378799
-0.38200268625198496864
-0.33679532071089179901
-0.33202773107505922923
-0.17870068523599627608
-0.15940437282129726881
-0.15172715597343738869
-0.64209604090244409846
-0.59617619333961457961
-0.57131112222757385322
-0.28842301280891380344
-0.28294790620115833901
-0.24958588417860091968
-0.18567459713895934081
-0.16567497977936351816
-0.19596167516378679152
-0.24455143787722510851
-0.53707359136422649915
-0.10025899127948105505
-0.13367029047431910893
-0.12182499418306119709
-0.04023778727756197743
-0.00043009846463387268
-0.01773261162122352977
-0.15870106787640045343
-0.91409595731220538717
-1.00000000000000000000
-1.00000000000000000000
-0.17896152064903664280
-0.20923925611244298395
-0.20260494559862335384
-0.44604511311094530157
-0.42188915823444361752
-0.38925416572101145807
-0.08560641834633049563
-0.06982748732132831870
-0.05492945281008962399
-0.36302474321595162854
-0.13059084452642605312
-0.13826806137428593324
-0.10945453307941471754
-0.03258599715248262918
-0.03013686952715206174
-0.05743119567985953411
-0.73865671521324283155
-0.68100123768969467175
-0.64912151580207488877
-0.17231825021420008048
-0.10485676217944789324
-0.08015310980825306186
-0.11177205344744720050
-0.09821824684541222150
-0.61021631901482442650
-0.29326194640571323635
-0.25926375137219970224
-0.29802953604154575062
-0.25442481777540032484
-0.09020605054386705846
-0.04253316116862083940
-0.22121458758447809512
-0.21618014128310225619
-0.19284329099035524280
-0.47329142362982057346
-0.44374678675876205736
-0.50752895449316792753
-0.06754128130917133599
-0.18590240581969594280
0.00382894485072805477
0.02113145800731771468
0.04269301447926929921
-0.11815728827234119047
-0.14191613402585234738
-0.13494222212288928264
-0.41650047623988672996
-0.92950386041713350949
-0.84359981772933889665
-0.85900772083426690795
-0.34631384418181554441
-0.32008442167675565937
-0.30337352264261957524
-0.11380591067587794707
-0.00730739305181730969
0.02042033867417857029
-0.00485826542648674572
-0.76965645898151235915
-0.68012125957034430535
-0.71112100333861383294
-0.13269736568503087693
-0.15582944316703375986
-0.14918617273219719754
0.03155667657672393822
-0.57747371953560178159
-0.53856852274835120831
-0.50582592326912867442
-0.26903761440180523623
-0.30291646755634848986
-0.26415068288700249699
-0.78506436208644037045
-0.08486428036414236931
-0.08026650946417554500
-0.06027402764887002801
-0.47478635501394539364
-0.20962138040842015485
-0.23444256589030992854
-0.22960363229351055114
-0.20123233569938769882
-0.12542732697868602676
-0.28620556852221240574
-0.04393270942576591592
-0.07209585035262348895
-0.06204290961700949236
-0.01368196909033852701
0.00277293134647500642
-0.02607826073180730814
0.05861402891033032359
0.03705247243837873905
0.07453504334139135490
-0.15174063619729855068
-0.17229196359382689674
-0.16535107842316759674
-0.03808340325877032639
-0.02123735370745102533
-0.05069523175785204533
-0.36717694119155330768
-0.34509971666209510177
-0.39442325171042857956
-0.05210336853731797196
-1.00000000000000000000
-1.00000000000000000000
-0.92950386041713350949
-0.14221900094116471380
-0.32423661965235733851
0.01159663501032678901
-0.09275402273348244686
-0.07605351238755017618
-0.09710540032994569026
-0.56744679757402194387
-0.63928390045631788841
-0.60828415668804836081
-0.00923221118048800880
-0.06816377001821009862
-0.53663636042157536465
-0.03258503156660846889
0.08149830099892732549
0.05095931983655294789
0.06209565773909830888
-0.24983206064629745469
-0.24494512913149468769
-0.23062650689078967314
-0.41819804155680440072
-0.39264929635484679959
-0.44923760981198773701
-0.22012394364960491400
-0.72732699198281003383
-0.74353298062700634574
-0.80127035073063668236
-0.09523679106672255923
-0.11396707837587671808
-0.10669703966953186791
-0.19255009068453687870
-0.18416104597550442268
-0.17547880096065363031
-0.16360971857897610438
-0.36887450650847097844
-0.28300012245303224345
-0.26583216833262507395
-0.26262672226344491166
0.09277271503816234000
0.11101038673493332509
0.07685170060710130868
-0.08564515172713636770
0.03960910293619771677
0.05879786719821686325
0.03078539927234593548
0.09625434386693032529
-0.93463089755775685674
-0.86413475797489036623
-0.86926179511551382451
-0.29206879617060005350
-0.31858425641634757763
-0.29772115940660981437
-0.02900290806182110465
-0.01407310669787628990
-0.03717356717337316069
-0.11962190425419479134
-0.13568127022574666407
-0.12615963496961282719
0.07014808409857209437
-0.80639738787126002961
-0.24662661457711729240
-0.61910607747533930034
-0.66511354040697656664
-0.59327643752468062210
-0.27734775921702248258
-0.50602123938368515077
-0.47521080223123846054
-0.44459568119334824665
-0.68131952905117287855
-0.00671581198870492297
0.00780572973004117938
-0.01806348984786236914
-0.10742934766045866835
-0.04806383816723264202
-0.03585364868559524909
-0.05595358053657271263
-0.41862248877409752312
0.02147123740626611862
0.04016954346605722953
0.00946609487930310210
-0.21605912943621302658
-0.20555656619502826743
-0.20149175198163640776
-0.18848527647114501904
-0.02496337769173576776
-0.00313368848391755526
-0.35884310791139961694
-0.33506831806502374027
-0.32503691946795237877
0.04948370533213704292
-0.14914490858108866989
-0.16231185477087115010
-0.15044277238919362416
0.11044567161674409550
0.14635629989209683610
0.12868334331351508060
-0.06861653670342270084
-0.06117956101929521856
-0.07820817604300889236
-0.30855285781927621613
-0.13438340641764173755
0.02398763659804920359
-0.93463089755775685674
-1.00000000000000000000
-1.00000000000000000000
0.11137062004994720266
0.12612666291795021634
0.14124293910096707982
-0.25424345645582197006
-0.23824334876949435080
-0.24586019064819902846
0.09692265504679740962
0.11234700909466749374
0.08557243814644217850
-0.04851660485244523036
-0.74547980460411611414
-0.80737079985981496932
-0.74450639261556128545
-0.55809185454128829029
-0.53226221459062961205
-0.49707763160723728024
-0.47083665640029276345
-0.09264486197201274309
-0.09005293287730291307
-0.10483741856574885221
-0.37692058970435826648
-0.36119188305386967786
-0.40289378212360893450
-0.27144977032875883260
-0.28175928324967947081
-0.26703824629610184438
-0.65566853882596110026
-0.69960075972648372300
-0.63738730815065025581
0.12679497409781728678
-0.34311440126091102831
-0.22423873877176056513
-0.22743262283127513301
-0.21286524537669848645
-0.07561624694829906235
-0.19124249052405056792
-0.17823601501355917920
-0.18099322906646470033
-0.16506906882377669898
-0.23504946470997978292
0.06678360922282851331
0.07609777108890833364
0.09339767497959979015
-0.25865498048847890278
-0.70057417171503866271
0.00705520293648397197
0.01799462115044270574
0.02818351257084423384
0.00235137231605354229
-0.01675113818477085362
-0.00586086719091137402
0.16239624174946634683
0.17843618360683585755
0.14472328517088459132
-0.31089646424681993686
-0.29441240259814371871
-0.29675600902568743944
0.15983956135390148257
0.10287234203713363501
-0.86616343567953180127
-0.93308171783976590064
-0.86771261539752275738
-0.12140616768905840295
-0.12319043112392201456
-0.13616766985250533528
0.03061453300673967065
0.04679643987474770006
0.05342333628343816365
-0.80582162014182401322
-0.28410288967722313602
-0.04484594540558859560
-0.03218298923873860740
-0.02851232979188197264
-0.10662168200061246381
0.01526744244344888785
-0.58539295271941271803
-0.52437872978536170798
-0.55167982796348613572
-0.39811809262693503841
-0.44759786211708618708
-0.42135688691014161478
-0.37965498784040235813
-0.60367418339472367350
0.04080342442714120221
-0.34122446095263292420
-0.32314697915967427466
-0.32125703885139611504
-0.01308047873791421539
0.13719287450939718354
0.15164083951254697658
0.16203873992412687333
-0.21170773951489324505
-0.21797323914332689121
-0.20659974574826484028
-0.05979889620032426134
-0.07492591453881358721
-0.06048922860980973648
-0.19635048429067897269
0.06380942554273927314
0.09042349129951054998
0.08744930761942130981
-0.30900652393854177724
-0.15514455432157170378
-0.16114420006205476543
-0.17106871456425973288
-0.25392197842810515507
-0.26198376620801122616
-0.26671676826838502938
0.07043632195142973673
-0.23109324730229774403
-0.23794775583283492293
-0.24190397324051698957
-0.14216731559298839693
0.19803925746966299926
0.18199931561229348853
0.21764233133249014096
-0.04415561299610311352
-0.62192653825534982559
-0.68370317142973302538
-0.63879753854065546292
0.13348241964379156665
0.11344004731169568534
0.12291471436922953020
0.20084701588769982017
0.17104497749433345000
0.18964159974726785274
-1.00000000000000000000
-1.00000000000000000000
-0.93308171783976590064
-0.73134079076345570591
-0.71720177692279518666
-0.79168260630116349397
0.18144287790591334675
0.14776057978395923387
-0.09297236681316375928
-0.09589180074902461937
-0.10954111593647331002
-0.24996576102042306067
-0.29090567145211576605
-0.27825255210365140712
-0.28505533387854403715
-0.58680318310941803617
-0.49608877256828221025
-0.46878767439015778251
-0.44049771717307834029
-0.22482774767386409787
-0.41930790490000668935
0.02092920868467435663
0.03384527881206970262
0.03950704505329517141
-0.07784534847467444729
-0.37018694446062427872
-0.35172383967409159844
-0.34225579629431346351
-0.33175641757285478928
-0.66956415758907250613
0.06016281152922228065
0.06690228677500639765
0.04754289967292531227
-0.27351955004327765941
0.00342019697107604978
0.00448902162609855770
-0.01201165408289170747
-0.20562773080851204366
-0.19027047558429777130
-0.19954772210213087003
-0.18034596108209283161
-0.30526852963547135289
-0.31326278424343373397
-0.30101226933057939616
0.11091466050780032782
0.12843164603600085161
0.10794047682771107377
0.13095703283989620913
0.23629877288505579669
0.25495521443762142466
0.21669569902222862723
-0.13270907954114793958
-0.14692663980160136639
-0.12794975533253497013
0.08776696418795942867
0.08808462075649753364
0.07075397851996784171
0.05320466591415078106
0.22790111516266062242
-0.03272317459376637705
-0.04626103539704531920
-0.03061775219282417485
0.02199803333969686456
-0.29516193175700766727
-0.93310912652029776027
-0.86619084436006366090
-0.86621825304059540951
-0.11430044014508627948
-0.79171001498169535360
-0.49945585142704534976
-0.56069119484119755992
-0.52556783969526577049
-0.22981486061551609223
-0.23388130822417552146
-0.22076130006520466864
0.07749345376575196565
0.16545344217501523065
0.16886814442590361574
0.15117528203484759119
-0.46997678430006184502
-0.01411707648383390967
0.18652882650334967618
0.20593296448513614960
0.21101891308257245128
-0.24659420553688965461
-0.25524065524094441404
-0.25861221072447782010
-0.39778410304936440145
-0.37659429077629269500
-0.35507048892565040710
-0.34866314260998193530
-0.07749352691479353961
-0.05944707464044335365
-0.05909525308056245291
-0.21468129135882346725
-0.31818538602268914284
-0.33022059115850133093
-0.31972121243704265670
-0.27788353539703730677
-0.28146943463779067196
-0.26993365080252429422
-0.31172695782908022011
-0.64268017279886557880
-0.59504255346514289826
-0.56815856867493585991
0.18994352875423803351
0.14864989523095223367
-0.19135618018233657711
-0.19545195114223373745
-0.17625019012219567127
-0.04590921383716441151
0.10463085413261377643
0.12512202334090355427
0.12181240064580622917
-0.24252775792823025314
0.10494851070115188141
-0.14596903518710266368
-0.15922899083305738777
-0.16018659544755609048
0.25333209836801373616
0.28902186540353735911
0.27198853992057936413
-0.26656209531899088816
-0.53380721005099063259
0.25636155031045615438
0.25776788618329082858
0.22930745103549532438
0.07166019458811395682
0.07641810240122152986
0.05796257372725835411
-0.30181339561199876931
-0.29170679773353513919
-0.29835826158852618573
0.04279483408886582130
0.04608262312443647118
0.02528582237526751444
-0.17529258550769699632
-0.11068643103880256018
-0.12548106132858050099
-0.12909507043486423417
0.23439339963293165381
-0.93310912652029776027
-1.00000000000000000000
-1.00000000000000000000
-0.73938892487808849374
-0.80280358895934189611
-0.72829535090044184020
-0.41803785016862438084
-0.39557798316417036588
-0.44751691729560783006
0.09830466744157204118
0.10852471412664654871
0.08771350045082647318
-0.28812089849278177400
-0.00936745417259161363
-0.02322392997128178496
-0.02797355228252407927
-0.37532423604491038649
-0.08984995550475394221
-0.09287087812688928079
-0.07447260429265820103
-0.66434800177108188635
-0.58982639764715216746
-0.61149422661936847501
-0.21113407423687813314
-0.22272042637162536849
-0.22626764349357073036
0.06125036276282899705
-0.32361580189902966476
-0.33934314541234000817
-0.33293579909667159189
-0.32090059396085940380
0.16592389161581394541
0.16297963880572430284
0.14570564242086259110
-0.14235502608081895826
-0.10766550841666722160
0.09247140826393404622
-0.04115959152592212067
-0.20703830327698097280
-0.67544157574872842886
-0.30804553174615717515
-0.31311545888442315899
-0.30665703069081429177
0.11516855738622638894
0.14239601972576526601
-0.23944520919433903705
-0.24907555777316198187
-0.25215810650705317020
0.20941980818208316695
0.20782070328159391037
0.18834442385374877693
-0.30320189666734165268
0.30895814874771720948
0.32889443209189700434
0.29192482326475921450
0.00963888594832201101
0.03043568669749096775
0.01478875027054546605
-0.45185026587646631713
-0.51000441727570111627
-0.47565305865175583344
0.28258162335512915231
0.31020803227263687996
0.28398795922796382651
-0.00421758985036815946
-0.27123356790514902004
-0.27455855165109316340
-0.26323711157304674479
0.26201365972753409839
0.23651628640505328871
0.25989077295541246349
-0.42371412452031831375
-0.93643450891094881516
-0.86954363543124646441
-0.87286901782189763033
-0.80612897134999306203
-0.23589799207239367518
-0.17374507188135870916
-0.18826115292966003056
-0.18980866655599831772
0.18540017104365910661
0.31955123218226694215
-0.29382376969228118924
-0.28358640659653677751
-0.28928927779603624826
-0.33707746535550864309
-0.36632772425983950448
-0.34607397714057952509
-0.26015456283915550095
0.23491718150456400438
-0.03861733988781043680
-0.05401074980433908518
-0.05655300144245076904
-0.07193035265454651717
-0.14094923426242964015
-0.15641740719627877931
-0.15782319901466806966
0.07994015633556991740
0.08346221026991830494
0.06477241669717738459
-0.31604685146651811944
-0.33555867019608426327
-0.31983132668277391986
0.13691253445081214002
0.15201266825581807862
0.13026869119123229979
-0.31609191304930916999
-0.31399844007592919715
-0.31880712098747943095
-0.54084962157505978020
-0.51354067447518381151
-0.56251745054727608775
-0.28026142285059263415
-0.20465794457650321458
-0.21795970897066982430
-0.22034006767114761027
0.15749615353077117685
-0.31090999574843597442
-0.31454769088556255863
-0.30947776374729657478
0.10805460171666655955
0.10758448930668655652
0.09200129585395404319
-0.32656215841101338127
-0.48269547017582503656
-0.12227018023574059979
-0.12387562078216055039
-0.10606006787024727100
-0.17233928006296939106
0.34337133907884764827
0.32343505573466785341
0.35784824606579834771
-0.20311043095016492743
-0.67706759242567393642
-0.61312024329631387154
-0.61474625997325937909
-0.30236571273083678868
-0.30637316387314733612
-0.30720934780965225563
-0.31245421791218258578
0.28259901802112641356
0.30881909106579946700
0.30743014985896205404
0.04945480269653943634
0.05282698226864240149
0.03380786626959393637
0.28472190479324810397
0.09552334978830243073
-0.13934379371600968955
-0.40035345910505248934
-0.37221731774890454147
-0.34885665233363871707
-0.24654876353371341091
-0.23337119783294507647
-0.24402196929426481220
-0.01680077062890189890
-0.02001235030009184193
-0.00100601017917821643
-0.30056470474997271092
-0.29946148316924947608
-0.29492699127300447959
0.06814459626928034974
-1.00000000000000000000
-1.00000000000000000000
-0.93643450891094881516
-0.34296705884457368008
-0.81261196863358242659
-0.74587192216167785830
-0.75235491944526722286
0.20135560199050495100
0.19489050069941599164
0.17893506975257014724
-0.03540576021662049377
-0.07031324428117377567
-0.08661573875800845923
-0.08823284713138120072
-0.30346893431156002352
-0.25741202587698386317
-0.26574849398080568896
-0.26849103094297732675
-0.23099083913246731825
0.36513916443277899537
0.33767359835270793766
0.34701679826233799986
-0.30864157981079165527
0.12493191970994330098
0.14667589677452907981
0.14133912529324005325
0.25109555240389247466
0.24017744508025079542
0.22399907418092235289
-0.68355058970926330097
0.17345158447761704901
-0.10444295949687452951
0.12446180729996331182
-0.30759656837239579552
-0.31182170991945695748
-0.31560618513571270238
-0.31079750422416252409
-0.56337048483182239345
-0.51439370875973011721
-0.51524674304427631188
-0.27712712014088658474
-0.28302067237662414945
-0.28615497508633019885
-0.56499650150876790100
-0.18765404696483001246
-0.17173217409813940071
-0.18704694099999999435
-0.25488523163753523670
-0.42630500189747699835
-0.46992283818633040493
-0.43907763388697162998
0.37557019191954266191
0.39329213777328692059
0.36109328493259196247
-0.30925471180033958785
-0.30246257213416100074
-0.31977001874483479416
0.21753397288983339353
-0.20188297896483001215
-0.21550480499999999373
-0.21673225698533490902
-0.38758082711555785771
0.02098316495401519183
0.01788595761228032807
0.03690507361132879666
0.32616030656070560401
0.32754924776754301696
0.34489046326244920948
0.00209119716255664646
0.31974206291094159349
0.29087786131923787369
0.31358610638495182377
-0.27438458317871494696
0.37921565110303295798
-0.32565961223389983115
-0.13889397511787029971
-0.15551776999999999962
-0.15596758859813938947
0.11692722696924687242
0.12626996463180717445
0.10486608745086273276
-0.30656437811725201215
-0.31028140909659063240
-0.30873718693284402104
0.35501481384761413018
-0.93888878907596862167
-0.87532329798691743683
-0.87777757815193724333
-0.81506624879860223309
-0.29213181611386840331
-0.29497435443170061387
-0.29776952959083669015
0.07200534422798343659
0.08732295822862137791
0.09118370618732446475
-0.05007410758358418756
-0.05204242869396163984
-0.03343743910624304150
-0.20127587299999999404
-0.30857362878880573165
-0.30630521285116141250
-0.30623726182917548888
-0.47077587247087665512
-0.06834492317079632340
0.28730527535741079426
0.26374136021883076708
0.27465946754247244632
-0.17128235549999998311
-0.28899751340416235390
-0.24042408700000000854
-0.24222302814713242425
-0.22919189798533490254
-0.30708047324482390383
0.13380454496252361385
0.18840252729819043087
0.18191455389696487011
0.16696361107639146049
0.16162683959510246168
0.30352366913417616612
-0.29405044054700585354
-0.30504864600676195874
-0.30082350445970085229
-0.30537918111731376936
-0.30247495155572645675
-0.30438519836148020259
-0.12185259161787029281
-0.10402537087900423640
-0.12143500299999999970
-0.64451032929374107994
-0.69843262436950415140
-0.62962829463350022952
0.10872683540956581960
-0.29825650634058342714
-0.22796444599999998726
-0.25270879014713243382
-0.26139561100000002769
-0.26357205249040283057
-0.30640081997321377827
-0.55864422389624590615
-0.50889446543175442805
-0.50254218781923243320
0.39140760894401305237
0.42496697182222775702
0.40912955479775736656
-0.13847638649999999272
-0.38367142490799888144
-0.34494725012607974080
-0.34103784791852070901
0.23174497490623069407
0.22331250473221062047
0.20910150271581329218
-0.29588817342266671151
-0.28931377471117247779
-0.31908521352240559743
-0.30531123009532784573
0.05563796312589914389
0.05844894398315588629
0.03971605446858553906
0.33143276370857033264
0.35016292041031393811
0.35543537755817866675
0.33758872023456010236
-0.28054784968831203429
-0.27191176049040283180
-0.27807502699999997464
0.00429546719467466514
-0.01239223056466586155
-0.01459650059678388109
-0.25090984900000001812
0.07481632508524017899
0.39557053085001775417
0.40964701752027171677
0.42600189726725651296
-0.03123316907412502369
-0.42437756024681783096
-0.42245011859615860805
-0.46884843082021743221
-0.93888878907596862167
-1.00000000000000000000
-1.00000000000000000000
-0.29806353445580247019
-0.30115271447990427101
-0.30085870961493849096
0.20261352931458775917
0.36610875517997465423
0.37623310576513957493
0.38732704709750009897
-0.76166114302360865551
-0.81971936058777294942
-0.75700803123443793918
-0.31517581131484662116
-0.53029924421397189871
-0.58740478675385654483
-0.57252275209361558339
-0.30276895642069223680
0.15533459862602150281
0.16933007195880295237
0.14780001829530506341
-0.51642071601660211044
-0.26973531900000002892
-0.06771619179179208525
-0.08535827599999999682
-0.08598700737900422109
-0.29467308268142650141
-0.30113482552691117622
-0.30061873039933928453
-0.70308573615867486772
0.17562231292788391124
-0.10339663949999999826
-0.28660456568831205182
-0.29018845900000000970
-0.29258140671585031178
-0.46249615320769554838
0.27406523205246441366
0.26082518874751803306
0.25050131691388444199
-0.29436176161421617747
-0.38174398325733965853
0.40666447218237833372
0.11058636501349423942
0.12812949423573560814
0.12998902383966401408
0.24206884673986434064
-0.28886879300930035086
-0.28466272721572277726
-0.27527501388443970098
0.31252744382315578164
0.32874583759992115350
0.33774961228890076903
-0.28413174299999999217
-0.30223648365278288352
-0.29823570547639033368
-0.30240004179682117291
0.37138121232783938286
0.44151873805577668275
0.45807050428932560848
0.42568132103130629229
-0.28229439429780611714
0.44203620077829108848
0.02548589441381663226
0.02323452968391591378
0.04196741919848626101
-0.30090188217545121852
-0.30356957200231338145
-0.30264354026846573831
0.00654683192457538535
0.37135808961736632705
0.34555007626415396027
0.36339673358777246914
0.07719033119975904356
0.09355771230184332932
0.09593171841636219388
0.21673981053234478433
0.21016711633247894819
0.19604083511472192303
-0.29645439407890838979
-0.04897703804179209808
-0.03013609953233293073
-0.04787996850000000165
-0.93972607481939141039
-0.87861486389536003205
-0.87945214963878282077
-0.29934485923995213241
-0.29625567921585027609
-0.29753700399999999382
-0.82055664633119573814
0.35455385095313352029